6000
 Atoms. Timestep: 50
1 12.7427 -2.3219 18.7489
1 3.07506 17.0664 11.6517
1 -0.706499 16.4383 7.63832
1 -17.3347 -0.22513 8.22311
1 4.93562 -10.6104 -19.9747
1 7.06961 12.9605 12.889
1 -16.2059 -15.7976 -16.1774
1 -2.51509 -13.4688 19.0456
1 14.9735 9.11498 -6.83085
1 15.8563 -19.8755 -16.2546
1 -12.4431 -6.42889 4.30117
1 -19.186 -3.77432 0.0492954
1 -18.8671 14.2041 11.9793
1 3.27483 14.7293 -1.84769
1 -4.91449 -5.90237 0.263918
1 -4.36681 -18.3406 8.73292
1 -18.4075 -4.38216 19.4146
1 -5.76199 -7.62906 -18.7997
1 -6.47034 19.1641 4.36011
1 14.2164 17.9175 -14.9464
1 18.9265 -12.119 15.7663
1 -5.91763 -8.24634 -12.5409
1 -17.4988 -16.6776 -19.0081
1 -11.5036 15.0725 -4.73407
1 -5.66027 2.29286 17.2081
1 -11.0369 18.9707 4.04093
1 5.60387 8.13327 12.0289
1 18.4455 -11.8004 -11.1109
1 7.26439 5.76002 -11.7687
1 12.5468 12.5879 -13.1081
1 9.20023 -12.2483 15.4971
1 -8.88087 19.2026 1.30064
1 12.2511 -4.46307 -12.7637
1 -9.61437 -9.13778 -5.13793
1 0.813008 -4.40965 -4.81646
1 2.22359 -15.9077 -17.5417
1 14.7657 5.65117 -9.48118
1 -11.8121 -0.609362 -12.0765
1 -6.20067 13.0337 16.0757
1 -16.7441 -16.8409 -18.2263
1 5.77385 -12.9569 -0.811666
1 -7.11251 -19.8825 -5.47497
1 -17.8046 4.16718 -12.837
1 9.58837 2.14129 8.31335
1 15.6342 6.91088 4.40409
1 -14.8255 -17.8231 4.06261
1 -16.4857 6.4376 -18.876
1 -15.8862 5.41915 -19.2211
1 15.9733 -12.0417 13.6237
1 -5.3189 -8.51608 -18.2617
1 17.0201 3.49621 18.2179
1 6.88279 0.644423 -16.083
1 9.61038 -7.7265 -15.3311
1 10.4264 -13.5728 -1.01332
1 19.8483 -9.87553 -4.20949
1 -13.5908 9.27736 6.51873
1 -1.9273 -18.8723 -2.5586
1 16.6502 -10.7393 17.4506
1 -10.4907 -0.859183 -2.76406
1 5.64507 -10.3163 15.9725
1 -18.579 12.7559 -10.5332
1 12.1117 -5.88319 -17.1619
1 7.07995 1.26632 -18.3786
1 -19.1929 9.39221 8.91832
1 -18.1633 -6.36876 -8.49798
1 -6.11225 -10.1976 -6.6077
1 -11.3216 9.25119 -9.75889
1 14.8306 14.141 18.301
1 -18.2863 19.4281 16.1012
1 -16.8541 -3.51217 -4.87533
1 -0.0531491 -5.41151 10.6681
1 7.51169 -3.39624 -16.324
1 -1.0032 0.255873 -0.108567
1 6.17088 -15.4816 -18.7365
1 9.852 -9.97553 -4.08459
1 -10.5064 -9.71341 8.51825
1 -8.41899 -4.30875 6.84154
1 -19.8896 -4.47048 -4.10625
1 -12.7793 7.23812 0.694785
1 -8.91288 -5.07134 -7.47141
1 -14.6353 19.0481 -19.5687
1 -18.8645 5.9586 12.137
1 -13.7722 -6.70845 14.2559
1 -5.2691 -17.8267 7.78054
1 -6.45874 7.52931 8.84677
1 -15.5091 6.57563 10.4151
1 -4.33328 0.951046 -2.95011
1 -15.2322 -3.73011 -11.8685
1 19.2812 -19.8346 13.9655
1 -16.5687 13.1756 0.930107
1 -11.273 -2.71166 13.8681
1 3.79615 0.5544 14.8142
1 -18.3488 18.2432 -12.4596
1 -18.3509 6.15838 -2.22107
1 6.09261 8.89431 6.18756
1 -15.8299 -10.9818 5.25994
1 -4.90182 -7.94645 17.2585
1 15.3036 13.6228 -9.56568
1 -2.55544 -12.3182 16.5892
1 -13.4433 -13.1794 -19.1826
1 5.76712 -3.6915 -19.0852
1 6.73808 15.6823 7.87173
1 -13.3171 -2.33345 -15.6697
1 -16.3055 -0.225816 -3.94786
1 2.21375 16.3405 4.3273
1 14.8818 15.5802 -11.2384
1 5.69284 -17.5755 15.9464
1 9.81126 -17.6807 6.61077
1 12.5505 4.14468 -17.484
1 -19.0311 15.503 8.32362
1 -13.1926 -10.4707 -18.9
1 -17.7461 12.5397 -17.6374
1 -17.7438 -6.09365 -14.2991
1 -4.07625 9.36248 8.21636
1 -12.5242 -17.1537 -12.3011
1 -19.8511 -14.7569 4.08354
1 -12.2276 -0.87589 14.9785
1 12.6518 12.7552 -9.49324
1 -4.51566 -18.5833 7.49191
1 16.393 -9.99826 9.20118
1 -8.75061 -11.5378 19.0351
1 7.32765 14.0982 17.9313
1 2.70652 -9.80312 -7.68282
1 -10.9422 16.923 -0.378185
1 17.0219 17.642 -13.0259
1 -16.4102 -15.9837 -18.8582
1 4.64854 -5.26438 7.77005
1 -9.1853 -18.7127 10.6729
1 15.5433 16.7082 3.11589
1 -17.5984 -10.6681 12.815
1 9.36375 -11.7475 -15.9718
1 -4.40621 -12.0589 -0.426874
1 14.4281 15.7585 2.63727
1 5.41349 -5.8043 3.68916
1 6.67065 5.085 -19.2357
1 9.76354 5.79419 -10.8464
1 -2.66979 -12.1033 -1.61009
1 16.3858 17.207 13.4687
1 2.22362 4.59141 -12.473
1 -9.99249 -0.32569 -11.2498
1 8.74004 -18.7326 1.1157
1 -18.3145 -14.9059 -1.66022
1 -9.83739 -13.5451 7.52211
1 -10.716 4.86607 17.7789
1 -7.80024 14.6641 19.3936
1 -5.54677 -3.83996 4.29906
1 -0.969379 -11.698 -13.3224
1 17.6082 -14.7397 -10.7398
1 16.2971 -19.869 14.534
1 10.0697 8.97923 3.2211
1 0.187245 18.6368 9.65332
1 12.4185 18.1775 0.878791
1 16.1306 -9.53134 17.9745
1 -13.5435 -9.86366 -8.25213
1 -11.9209 -0.820075 7.47669
1 10.3912 5.44302 -14.1064
1 -14.1627 4.79193 -3.2942
1 -0.769544 14.3037 -0.85842
1 5.24285 14.8095 -8.67583
1 14.0499 -19.6607 1.11544
1 12.8748 -10.0026 5.76188
1 -6.84199 -11.8893 -11.7099
1 -1.26179 -4.52733 11.887
1 -16.1635 -7.43288 6.69214
1 -12.4725 10.9697 -0.181837
1 6.84595 -7.70246 -6.54884
1 -14.2748 14.8704 -3.73543
1 11.749 -9.23536 12.3595
1 -8.8771 -1.62262 -8.43404
1 6.56636 7.35564 17.8441
1 7.85766 15.9813 -3.64552
1 -5.18745 -12.4107 -12.8842
1 7.68802 -10.3005 13.3394
1 -6.12339 -14.3284 -3.4673
1 -12.2259 -8.28332 19.8009
1 19.4787 -17.3883 14.6082
1 -19.6009 -12.1461 2.42338
1 -16.8949 5.71487 -13.0256
1 -9.02609 -1.55383 14.0052
1 3.50451 12.3334 7.25542
1 18.9686 -15.8187 18.5784
1 7.01941 0.34863 15.4672
1 -18.0096 -1.84749 1.51018
1 -15.3153 -4.87654 1.98136
1 -13.7095 17.8209 8.66236
1 -17.2918 -13.2711 11.6714
1 -8.06801 -16.4052 11.6821
1 -13.8569 -7.22472 -10.0276
1 14.4817 16.9572 12.8373
1 -2.83181 -8.962 8.30091
1 6.1063 -0.203209 9.36926
1 9.28588 -1.64229 -1.19106
1 16.9416 19.7253 8.21744
1 13.5846 -11.3866 -12.0272
1 12.6789 9.87554 -2.04993
1 15.8575 -11.718 0.52016
1 1.33443 -16.5984 3.27623
1 0.315435 5.28136 2.28971
1 10.4266 4.69855 -16.6246
1 -7.60495 -1.87922 11.0573
1 10.7744 -16.2403 8.70218
1 10.8173 -3.62012 16.7388
1 17.9018 -12.8062 5.48729
1 9.12529 -7.96438 0.917438
1 -16.4863 7.43438 -19.4128
1 10.4828 19.0976 -5.82374
1 19.524 6.93504 14.591
1 -14.8952 -0.0175142 -6.70986
1 -14.3056 -1.13024 3.48074
1 10.2846 -3.45583 17.942
1 17.1739 17.8947 -19.3681
1 -14.286 -3.44761 17.0441
1 9.71938 -11.8637 3.67127
1 -9.7247 -13.4262 -2.51885
1 7.83073 -11.0721 8.79144
1 12.8086 11.798 -10.966
1 -0.98501 18.4263 -15.6597
1 -14.5587 18.4301 14.9708
1 -13.0616 9.90736 19.2126
1 3.72403 -17.6335 15.3984
1 18.6957 -17.3654 -9.48877
1 8.58137 12.4354 16.8863
1 1.75649 -9.09896 8.76802
1 -12.3172 12.2148 19.6195
1 3.16239 3.12626 5.332
1 -8.24606 0.986899 18.342
1 -1.50085 6.95822 16.0613
1 6.82954 -5.39614 -10.0603
1 -14.78 -15.9928 14.3401
1 -19.8819 -16.2094 -16.3706
1 7.39698 3.69655 4.73377
1 -10.7523 -9.85862 -10.9962
1 -6.48036 8.18775 2.17953
1 9.44156 16.0008 18.0659
1 -19.6549 15.436 13.4002
1 13.7041 2.53574 4.23766
1 1.42033 -14.5022 11.7202
1 14.4856 14.3179 -0.391922
1 7.19809 0.237682 -8.28826
1 -2.49615 7.04415 4.93966
1 10.5899 -7.6963 -8.57085
1 -19.1475 10.5177 8.92058
1 -2.87921 11.6718 -14.5011
1 -8.46119 -6.10851 6.77614
1 14.8921 -10.9641 16.5454
1 -16.5604 -13.0379 -13.5077
1 -11.7222 -4.28921 7.2704
1 13.1824 -19.1247 -4.0993
1 14.7664 15.0193 6.83559
1 -3.64925 16.8112 3.7462
1 12.4689 -14.7141 -11.8657
1 4.60616 -11.7998 -11.5592
1 5.38131 -13.6054 -14.8975
1 2.07925 12.5317 -16.4375
1 9.46227 -15.8318 -8.09771
1 5.46037 -2.82198 10.0338
1 15.5387 -4.13162 -10.388
1 -9.16258 13.7703 -16.3106
1 19.1238 -17.6879 -6.87486
1 -12.7515 12.3226 6.94087
1 -11.4004 13.913 16.7704
1 8.58712 -13.2947 8.34463
1 -4.95078 7.336 19.0956
1 -12.1487 15.0606 -12.7761
1 17.1049 1.89337 13.9863
1 7.42886 -19.2334 -6.82583
1 -3.70886 -11.6722 14.7487
1 -14.1513 5.28106 -4.37624
1 -5.81327 -4.80112 4.91438
1 17.9742 10.2446 1.07279
1 8.13832 -3.34998 14.6771
1 -4.95446 -15.1323 10.2789
1 17.3674 -14.7942 13.6024
1 -16.2943 -5.98748 -18.8254
1 6.2371 4.4313 -18.4319
1 -7.91352 -17.8335 5.48543
1 -9.54859 1.44353 -6.3083
1 8.90414 14.2176 2.34807
1 12.6636 -12.142 -19.2004
1 7.88439 -10.1912 -17.6896
1 14.3989 12.0787 -5.62443
1 11.0826 -9.18995 16.4431
1 1.91177 10.0498 10.3465
1 6.75446 -2.69461 15.1622
1 6.55203 -10.1338 4.01883
1 -18.4205 7.9378 5.43304
1 -0.258023 -11.2924 14.7222
1 6.53889 2.64268 -15.3762
1 6.82559 -7.24757 -16.2021
1 -6.89181 12.9366 -18.3574
1 -0.564074 4.18967 -9.41736
1 -2.30015 2.45401 -3.48062
1 13.876 5.30886 9.2051
1 -3.59459 -0.832166 15.0112
1 15.0976 -5.5897 12.1612
1 3.14917 -13.4832 -8.33715
1 5.9226 5.39039 -2.14944
1 13.348 17.6232 12.4518
1 1.03426 18.4219 14.7108
1 -4.11888 -16.7427 4.22619
1 9.7119 11.636 10.7004
1 -13.2751 -15.6423 -4.36115
1 18.9492 13.5805 9.84661
1 -14.3209 -9.80307 -6.28684
1 -11.6581 -0.523521 -5.91939
1 9.71451 1.99637 -13.0635
1 -16.1071 18.1272 5.79139
1 16.9916 -10.6176 -11.5692
1 0.159083 -1.93466 3.39143
1 -5.06234 -9.43941 -12.9518
1 1.65267 -11.0934 17.3616
1 -19.0256 -2.44845 19.6439
1 17.2234 12.6087 -0.828744
1 15.2127 3.63245 -16.9525
1 -3.51876 -1.55897 8.65744
1 -5.94054 -2.61328 7.1748
1 16.6488 -4.75368 4.09684
1 -13.1357 7.99895 1.46524
1 -0.255616 -14.9036 15.2686
1 19.3412 -3.4671 -16.9851
1 -4.81417 -10.4531 11.8411
1 -16.9071 -4.56792 14.6242
1 2.97461 4.63935 2.84634
1 14.4259 -7.97997 -16.8221
1 -2.44327 -10.2005 11.3339
1 4.08529 -9.4945 -17.3074
1 2.98165 -9.82757 -4.10838
1 -17.1905 16.4072 15.7772
1 -12.4533 -9.22289 9.33828
1 11.4414 -10.6314 3.5222
1 12.8128 14.5239 7.70787
1 7.80013 17.5201 3.88793
1 -11.434 9.47899 2.86304
1 -0.121119 4.516 -4.19303
1 -3.94428 -3.24533 -1.69209
1 15.2572 -1.52409 -8.83895
1 -5.0057 -17.966 -5.97625
1 4.8274 -2.39581 -9.57762
1 15.117 16.8999 13.9298
1 6.80761 -1.74601 -13.3857
1 -11.5934 2.80155 -3.3198
1 15.5132 -15.9488 6.28226
1 -8.32665 -17.4133 -9.78879
1 19.7588 3.89443 5.96909
1 17.0689 -9.59307 -5.0078
1 -6.55535 -1.65627 14.1387
1 -13.4462 1.0941 -2.12202
1 -16.2252 11.1859 -4.26901
1 -7.24204 3.94082 15.3662
1 6.54031 0.0960562 0.597695
1 -2.74049 11.5483 15.7461
1 19.3704 -4.42312 16.3625
1 -4.77008 5.65187 3.67861
1 -12.0015 1.75048 -19.4286
1 14.9978 11.8219 16.5602
1 -6.87714 -15.9848 7.842
1 -16.8468 0.289347 17.708
1 -16.5527 5.83178 -15.0663
1 16.183 5.51754 -5.41627
1 4.12415 -2.89698 -16.6763
1 18.5389 3.41459 -2.1946
1 8.09517 -2.14832 0.572674
1 4.91909 0.915065 14.5764
1 3.94757 19.7102 -3.92892
1 6.55856 -11.0794 8.34306
1 12.6037 -19.1188 2.52187
1 -11.0225 -9.77283 -14.6434
1 -2.00324 6.98691 2.50561
1 -8.58089 7.77623 0.357431
1 15.2908 -0.879094 2.53653
1 11.9233 5.68552 5.08703
1 -10.7345 -15.9869 -3.87708
1 11.5047 -6.37243 -16.1468
1 17.3205 -8.96164 -2.0099
1 -19.4889 18.7075 19.7746
1 17.8756 11.9652 7.16745
1 17.0124 17.3312 16.2285
1 2.29285 19.0165 8.76336
1 2.74304 -2.67862 -5.1738
1 3.71169 8.13143 14.0096
1 -0.0436537 8.14899 15.8066
1 -12.6087 6.24972 -3.48333
1 -16.6813 -2.29776 -18.4783
1 -3.88308 -17.0518 -0.640769
1 -1.14492 1.7076 14.5896
1 16.0044 -12.3766 -16.9558
1 1.09287 -0.053215 18.9238
1 12.9835 -17.8267 17.5499
1 15.8189 -11.1666 -14.6604
1 6.25272 18.2639 -19.2381
1 -11.5054 -7.56776 -2.83603
1 -13.9314 -8.08015 0.496782
1 12.0943 -13.5942 -7.12688
1 -17.0891 6.33811 9.96328
1 -1.97636 1.81389 -7.67599
1 18.8936 -7.30916 -7.72529
1 3.60017 0.841392 19.4916
1 4.97385 -14.3756 -8.93615
1 14.0969 -19.5917 -16.2918
1 -10.4884 -5.03006 -12.2998
1 -15.894 -0.640518 -12.3971
1 1.13693 7.29361 6.19313
1 -11.9429 18.7331 10.2745
1 -6.00058 17.54 11.5633
1 14.0587 7.91381 2.0011
1 19.0083 3.91602 9.50105
1 17.8597 13.4568 5.30422
1 14.4986 -8.28428 -18.7936
1 10.9883 -16.7331 -1.76903
1 11.604 13.0273 1.10475
1 9.73815 5.6847 -3.50415
1 -3.08536 -15.1089 -19.122
1 -15.4183 -15.5884 6.53853
1 1.13543 5.84663 2.81058
1 1.93236 12.2142 -14.6726
1 7.07303 -6.28967 10.7037
1 -6.28734 -1.88984 -19.8182
1 5.47572 4.20433 -11.219
1 15.7571 17.8627 -9.96879
1 18.8893 4.25763 -12.738
1 17.7345 15.4037 0.125222
1 19.5029 -16.4531 -10.9011
1 18.7974 2.52775 16.9606
1 17.3287 13.0513 9.24622
1 7.05816 -9.44549 -2.50749
1 -16.2266 1.54515 -4.73945
1 0.089802 17.9193 19.261
1 -15.5761 -14.2347 -13.9356
1 -19.3618 -19.3654 -9.05145
1 -9.36878 -16.499 -15.1784
1 -15.9452 19.6066 17.8776
1 -15.8329 -17.4664 13.3645
1 -6.97414 19.5141 -18.0746
1 -14.83 -2.34146 8.76235
1 4.35412 -5.7748 6.82844
1 0.156668 -16.8884 -19.2667
1 -15.5547 -13.0583 1.90755
1 3.13699 12.9398 11.9985
1 -12.441 0.666873 -7.31488
1 -13.663 -10.1849 8.30793
1 -12.0551 19.1366 -15.1262
1 5.64932 13.7413 11.4939
1 -17.9071 -14.1141 -6.10372
1 -10.4655 9.89862 -16.0575
1 -14.3048 -16.0578 12.3418
1 -4.59804 12.5725 8.68975
1 -10.5507 7.84413 11.1028
1 12.8476 -1.27675 5.37558
1 -7.47634 19.9862 0.348525
1 -9.62688 3.12226 2.64289
1 -5.42938 -12.7108 -17.172
1 -17.7129 -7.97785 -3.45531
1 -6.82002 1.83848 12.7095
1 -4.52378 9.53821 9.23321
1 -10.0207 1.91536 2.72548
1 -17.1526 -6.58845 -19.2219
1 3.8479 3.85393 -14.0861
1 -14.7157 11.3032 -16.3866
1 -4.89435 -18.3297 10.5149
1 10.8513 -5.78996 14.643
1 -10.6482 -6.12272 5.16381
1 -1.63193 -3.60422 -18.9763
1 17.2823 -15.286 -11.6636
1 -4.57597 1.23727 1.19619
1 -2.59929 -12.7706 -13.0276
1 15.7979 -5.4218 -15.9061
1 -0.571253 -1.7043 -18.2913
1 -19.2 5.19332 -14.3896
1 15.5142 -6.81576 1.81163
1 18.3883 -8.24673 16.47
1 0.180944 2.69858 11.3172
1 9.18811 13.4967 -8.28924
1 8.03795 18.4792 8.19944
1 -12.726 4.89869 -0.637086
1 -8.05 -2.5971 1.30188
1 18.5377 -0.434945 -8.07598
1 6.33586 9.92193 12.2456
1 -11.3266 1.30291 -13.5382
1 5.63821 5.75602 14.8014
1 4.5282 -19.6045 -15.2967
1 -11.0158 11.1763 14.4736
1 19.6374 19.6164 16.6667
1 -0.890712 11.928 -9.22286
1 -14.543 -11.2076 -13.4806
1 -7.06736 15.0672 -14.2754
1 5.10309 -19.0502 19.6315
1 -1.9879 14.108 17.0299
1 -13.8241 -7.18387 -7.8526
1 -15.6707 -14.7366 1.98438
1 -5.71806 3.49715 -18.6076
1 -13.5549 -16.9149 12.5403
1 -15.5762 0.788956 -16.161
1 -18.5625 13.5268 -5.31604
1 7.64229 -2.57321 6.86114
1 -7.30095 -17.1363 -8.50926
1 -13.0382 -16.8806 18.5482
1 -5.294 -15.605 -19.6393
1 19.7575 -19.9525 4.45593
1 14.3513 19.8122 14.2745
1 -1.77956 -17.7232 5.62932
1 5.93126 -9.04621 11.757
1 9.68734 -5.82746 2.26354
1 10.2376 -12.7003 15.4475
1 13.5362 -9.71844 -8.47554
1 1.18832 -5.98158 4.94478
1 14.3988 10.0451 -6.5024
1 -2.73768 2.95546 5.0187
1 -8.30198 14.2001 -13.514
1 -18.7287 3.0158 -8.88758
1 2.86689 -10.7784 -3.58715
1 3.18889 18.2669 0.413707
1 17.4948 6.84782 17.4205
1 -11.4858 -3.71147 14.2914
1 9.21351 12.395 -9.98454
1 14.9454 2.24212 15.6655
1 -18.347 -15.9205 -14.6742
1 9.51636 6.1707 8.36823
1 1.33482 -2.28095 0.660875
1 4.03929 -3.36494 11.4201
1 14.0458 -1.05945 5.01778
1 13.3779 -17.3701 8.2403
1 0.163832 16.3236 -3.83094
1 2.26357 14.3676 -12.0977
1 5.37548 -1.5119 -3.62504
1 -10.4259 -13.1989 -16.8046
1 -17.1537 0.504305 0.113045
1 -16.8078 11.6747 -5.26887
1 9.99403 7.99455 17.014
1 6.94371 3.22242 6.67162
1 -18.2087 3.54787 -10.7548
1 -10.5722 -9.00834 -6.72097
1 -8.34214 -17.9445 -17.5641
1 -4.88231 -4.64411 -9.49952
1 13.3082 -8.08312 16.9404
1 3.60357 -4.65093 9.80845
1 6.86457 -1.95365 13.0982
1 -5.20568 -7.38945 -15.3086
1 -16.209 10.5669 -1.20401
1 1.95144 -3.20966 -9.6579
1 -1.54036 10.0565 5.49009
1 -16.6584 -19.8794 -15.509
1 3.65353 9.4354 -3.48094
1 7.64245 9.91207 0.987997
1 -2.16853 16.8024 4.52924
1 -4.38518 7.80313 -12.5412
1 -10.3689 -6.70249 -9.76666
1 3.83168 6.76574 16.4713
1 -6.63883 16.4597 -12.6504
1 0.499677 5.92238 -10.4864
1 -7.51877 10.8421 17.3956
1 -19.4628 -17.2455 -16.0694
1 -1.3962 4.64751 0.0510087
1 5.12909 -17.3475 12.9911
1 -17.8268 16.6784 -8.76112
1 -13.064 -14.7125 -3.82198
1 -14.1823 1.49581 -10.552
1 0.568455 17.3558 -4.02829
1 -16.2856 -19.3521 7.60148
1 -9.93703 6.29072 3.18103
1 -6.46337 -11.3835 -16.4541
1 11.9923 12.4264 0.169299
1 18.2089 -8.17074 10.1989
1 -10.7056 -10.7157 -12.3503
1 -7.29512 -2.71651 7.58436
1 12.5046 -3.46347 19.7045
1 14.5585 1.99727 -19.4849
1 -18.0946 6.80039 -3.47113
1 -14.4538 -4.22152 1.67138
1 10.9416 18.9251 -9.65176
1 -10.3155 -5.85267 -4.5716
1 -12.1775 -9.86649 0.319939
1 7.03249 -5.49632 7.37854
1 7.89731 -12.6137 -1.40854
1 12.3438 2.80115 -10.0406
1 -7.01133 15.1182 -15.3942
1 -13.8973 -2.22607 -13.2685
1 -14.4679 -19.5554 3.35937
1 -15.3428 -17.1146 -16.7988
1 -8.96222 -17.6537 4.34302
1 -17.4594 -17.9986 16.6763
1 -15.7423 18.5348 1.42321
1 3.66619 -6.10031 8.05652
1 -6.98857 8.52858 7.15678
1 5.46188 19.3847 6.81541
1 -11.0296 18.38 -3.98471
1 16.4713 -3.70956 7.28941
1 -14.8866 -2.41103 -5.46645
1 -2.54108 16.0979 -14.7606
1 -17.9304 -11.239 -12.9401
1 -15.4512 16.0341 -6.36017
1 -8.73369 8.10677 8.44408
1 -3.32679 -2.93847 -17.1729
1 16.2307 -18.9771 -7.10634
1 -16.0025 -11.2983 -9.504
1 -10.9691 7.76755 -12.1961
1 8.08781 17.5161 -5.05735
1 -15.8736 -18.3578 14.0791
1 7.59674 -19.6567 -5.79625
1 7.69086 -1.18451 10.3225
1 6.67381 -11.1299 2.54696
1 9.07107 -0.130996 3.43621
1 -15.4064 -10.2587 -2.10117
1 -4.58534 9.69267 5.27516
1 19.5485 1.52521 8.23853
1 14.6745 7.92051 -13.2238
1 -7.90528 15.8312 -7.41956
1 17.7021 2.64401 -13.3147
1 16.9546 13.9402 5.74449
1 -14.5458 16.9938 17.9895
1 13.19 -14.9786 -13.9825
1 -8.47038 4.94756 -11.5243
1 19.2048 11.2708 -9.73921
1 0.33199 -2.60056 4.92
1 14.4005 6.18056 19.8842
1 17.3349 -5.51278 9.07689
1 -3.46317 -16.5499 7.01479
1 15.6679 -6.81224 -19.6903
1 8.06778 -16.5953 11.5984
1 9.08686 -3.09531 0.512698
1 -3.46448 -15.1466 -5.91513
1 5.25017 18.9384 -14.2695
1 18.9058 -4.82413 11.898
1 6.04304 9.33888 -16.2117
1 -4.56946 7.85866 -17.1307
1 -12.2479 18.9074 -16.2065
1 18.3283 16.2207 18.3061
1 -12.7151 19.3964 16.4527
1 -14.9849 7.77326 18.0334
1 -12.6718 7.43614 -2.67626
1 -1.30895 14.7275 -1.74068
1 -19.3154 -10.4691 -17.4247
1 17.154 19.4213 14.4335
1 -15.5098 -8.05442 -5.35751
1 16.8988 -16.3503 5.96681
1 -11.9358 -19.5402 -2.80017
1 9.07306 -2.09895 9.121
1 -9.33685 -17.9616 -5.09134
1 13.0655 15.0289 8.67398
1 -0.631428 17.9129 8.44598
1 6.29683 14.5147 -6.40777
1 -9.29592 -15.4787 -3.06836
1 19.4642 -6.25238 -16.6813
1 7.67476 2.92467 -8.89327
1 -3.91733 15.9321 7.41294
1 -19.0822 9.95893 -7.89385
1 2.28561 -5.68463 11.9191
1 -18.3844 17.5492 7.98198
1 -12.9033 -12.1637 -13.6354
1 12.3815 -9.37608 -2.76756
1 17.97 -9.63904 2.35221
1 -15.2273 13.4276 -10.2276
1 -10.9524 -14.7592 -4.21304
1 -2.75569 8.52652 18.4588
1 12.3863 6.23748 -3.07957
1 -7.82723 12.9557 -12.4657
1 16.9757 -6.42097 -6.54887
1 -16.5583 -19.0737 -11.8674
1 10.1523 -0.217874 -6.26893
1 -7.8477 -7.15707 10.0619
1 -14.9033 -1.33499 -6.8911
1 8.28689 0.550449 -17.0981
1 15.7896 14.0073 2.92495
1 14.0777 -13.9241 14.1828
1 -17.3701 -6.29254 5.24843
1 14.6696 -18.6323 -7.40862
1 -18.0995 11.7591 9.14117
1 -18.0435 16.5436 -2.47552
1 7.79466 -9.31655 -11.7396
1 -12.8094 -0.259683 12.9702
1 -1.14076 12.2148 -16.654
1 10.7427 3.53174 4.49777
1 -8.45069 -15.1474 -11.3821
1 -3.77743 -11.9871 -1.37137
1 -12.8391 -1.55152 -13.1815
1 18.6031 -5.01087 19.1534
1 -16.9991 -10.9263 -13.4964
1 -11.0119 -0.177656 7.32324
1 -8.26937 -17.9247 10.4358
1 6.40367 -8.42026 -5.83375
1 -13.5933 -10.8506 19.4299
1 -15.302 16.6136 17.1847
1 11.8899 9.81393 -11.51
1 -7.93667 9.89591 8.02722
1 -4.86977 -12.0491 -15.9983
1 8.1974 -3.27865 12.3711
1 -13.0693 -2.45451 -12.5542
1 -9.87115 -3.03838 -13.0137
1 4.64374 -18.5735 2.81282
1 -9.84786 16.46 9.11627
1 14.0339 -18.4888 -11.5579
1 -11.1593 2.69035 5.17844
1 18.0983 -19.5053 18.7533
1 -8.55982 -3.76733 13.2191
1 10.8303 -19.2524 -14.6323
1 3.35803 7.87028 7.49884
1 12.22 16.1367 11.2273
1 18.715 -11.1309 -19.9392
1 -18.5918 5.96929 -4.39477
1 0.551813 -6.47148 -9.96718
1 -8.24518 9.54131 1.83082
1 -0.949788 7.78953 -5.84567
1 -12.4408 4.00681 2.9733
1 -5.08172 12.9467 9.7355
1 -13.5867 -2.576 17.1854
1 -17.4234 0.224662 13.0283
1 11.8845 -14.9615 17.5178
1 14.3479 -7.93772 12.4934
1 -6.07598 9.75744 -1.95145
1 10.0714 -6.55257 -16.5818
1 1.85541 10.0084 5.36767
1 7.49926 6.67432 12.8843
1 -9.48226 -2.70297 -6.61234
1 13.6049 4.76697 -17.0889
1 -8.67331 -12.8663 -12.8548
1 -6.72412 2.97248 3.58105
1 10.0011 -8.55364 2.34685
1 16.0843 7.09499 -4.8918
1 -10.5105 12.4776 -8.62139
1 13.002 -3.5558 -15.6952
1 -1.77768 14.8807 19.5794
1 -1.18424 11.4376 19.7753
1 -19.102 -7.50813 -8.12101
1 -5.27307 19.2983 -9.6668
1 1.64274 -0.200881 3.25396
1 -17.5445 -7.22593 -8.96573
1 -9.36697 17.5551 -19.2734
1 -17.8855 -2.64977 -9.95644
1 1.83923 -9.48501 7.71096
1 8.54596 19.0366 11.2357
1 9.55811 8.79895 -6.80461
1 -6.47004 -10.93 6.87295
1 -14.7782 -13.9116 7.23732
1 17.5926 -15.98 -14.0547
1 11.0747 18.679 -4.83294
1 -4.4622 16.7047 11.9818
1 -14.7988 18.5475 -8.85465
1 -4.07535 7.11161 -18.2016
1 -17.9617 -11.931 19.6445
1 4.03789 -2.3015 -19.4614
1 4.82674 -9.93231 15.2901
1 -10.621 1.03504 12.9314
1 19.7818 2.97194 -18.2817
1 13.0337 -11.0134 16.0469
1 17.7121 10.8914 7.4322
1 8.14594 11.1482 1.62951
1 0.363776 2.735 -9.83349
1 0.435015 -16.6979 0.188471
1 -17.4978 -16.3608 1.47367
1 -10.6383 -1.48385 5.99372
1 -10.1806 13.6143 -19.3326
1 -19.7299 4.40059 -11.5862
1 -13.9059 -2.30604 14.8144
1 5.60144 -6.85536 5.14772
1 -16.5266 12.1802 4.56153
1 12.5779 18.4809 6.58652
1 7.48107 -11.0909 10.4819
1 18.9244 -18.7326 -3.89283
1 7.50485 -11.3944 3.25466
1 -8.8297 9.5402 18.3675
1 -3.4544 0.532065 9.44287
1 -10.4828 -2.35545 19.0568
1 16.8671 4.97202 -13.4332
1 4.88638 -8.42958 -19.0962
1 -3.35323 -19.106 1.6829
1 -0.87925 19.819 -8.87339
1 -14.0943 3.89123 -9.66547
1 -7.72973 4.13892 17.4122
1 -18.5571 -14.246 -2.54533
1 9.21667 -1.81265 -13.3617
1 -3.29489 -15.0908 16.4721
1 -4.84049 9.81286 19.5536
1 -1.76529 -0.933762 -19.9424
1 8.34956 -1.43041 3.66718
1 -2.83686 -18.3416 -8.5433
1 18.7578 10.3246 9.99183
1 -4.35564 1.82854 5.13565
1 -11.2461 -13.3946 2.77337
1 -0.65178 3.91732 12.2576
1 16.9583 6.37825 5.65179
1 3.67777 3.00133 -0.253858
1 -2.37053 18.8056 -12.178
1 -12.6955 17.8615 8.12689
1 -1.75856 19.1896 17.532
1 10.6252 -10.9764 11.3392
1 18.7361 2.93608 -9.22108
1 -19.4943 -4.00006 -1.01906
1 19.69 11.4484 -12.3736
1 -1.88601 -4.91043 15.6862
1 9.23952 -18.1457 3.42082
1 -18.2847 -11.9706 -4.80718
1 6.26727 6.05799 1.76496
1 5.4181 13.5936 -17.7931
1 -19.8664 -4.81276 -7.66344
1 8.02764 -19.2862 -3.82849
1 -1.04063 -17.2032 -4.38817
1 -18.7041 -18.2157 11.6613
1 -19.531 -3.87736 -5.9569
1 -4.8178 -12.3052 -7.12501
1 -15.4797 -3.32143 -5.11877
1 17.6617 -1.35846 8.70225
1 2.66958 -18.2027 1.62993
1 -16.7783 14.9695 4.05201
1 -2.66672 7.64768 11.6081
1 11.4046 5.73797 -13.7412
1 8.26825 10.7649 8.79981
1 -13.462 1.94782 -19.58
1 -1.19644 5.62845 -8.54726
1 -6.06248 0.695328 0.085237
1 -11.7359 12.3562 -11.7183
1 5.02162 11.0624 4.20931
1 -12.4058 -15.3293 -0.64818
1 -0.215247 15.7611 6.85278
1 -15.5956 -7.59649 -13.8839
1 6.15425 4.76808 14.6822
1 -6.98444 10.2329 2.99804
1 -18.0443 10.0388 -19.7896
1 12.7023 -7.26372 -4.96143
1 10.7959 -2.7857 -9.86025
1 -9.8001 -4.67113 -16.1967
1 -5.13736 6.72234 3.39067
1 -9.79019 5.55613 -1.95652
1 6.54826 18.0999 14.2871
1 10.1197 18.7423 -8.91624
1 -8.28061 -18.0246 1.04382
1 8.98496 4.10337 0.699064
1 8.51371 -6.81079 -15.2333
1 14.9017 -18.1896 11.6099
1 11.2068 1.44237 14.5776
1 -5.1504 -6.57539 1.33172
1 14.3664 -4.05647 1.42391
1 10.7347 18.5142 8.34945
1 9.08658 9.75016 -9.78624
1 -11.1386 -11.0173 -2.48729
1 -9.84158 -2.84402 8.84934
1 7.44791 7.24905 19.8931
1 -12.2545 11.1809 -12.4615
1 -3.8444 3.93572 9.93774
1 -9.82716 -7.68354 14.159
1 10.7354 17.779 -12.9755
1 2.97932 6.66802 -18.1359
1 -6.66615 18.0995 6.69195
1 -19.6886 -2.9624 -12.3113
1 17.1617 3.34376 3.52731
1 8.05933 16.114 -4.7406
1 18.1923 -17.4734 -1.54538
1 -15.7764 -5.01977 -9.85699
1 -5.79105 -17.436 1.74221
1 7.95606 -11.9568 11.5895
1 8.96838 -17.716 4.39241
1 -16.6843 -0.661474 14.6796
1 -1.57589 0.965774 18.0915
1 8.38305 -1.13568 6.99405
1 5.5724 -7.18087 19.2689
1 -15.5556 -10.8857 15.3274
1 -12.2647 10.1753 2.56491
1 -15.7371 -14.9176 -7.66391
1 9.77523 -13.2436 -6.0321
1 2.77996 -8.46838 8.57023
1 -4.47055 6.11249 8.14138
1 0.143905 7.45024 16.7042
1 9.06226 -11.4247 -12.5817
1 -6.20626 -0.919435 -13.5747
1 -17.7522 2.47282 13.2459
1 -0.568217 15.7756 -14.4408
1 -12.9509 -5.65427 -1.22082
1 -18.9163 -14.4543 19.2661
1 -5.83539 17.1529 13.3932
1 14.7293 -7.64624 0.512082
1 17.7078 14.3256 -17.8494
1 1.80392 0.231864 9.66238
1 -19.7314 12.999 3.16108
1 -3.23819 12.4648 -2.10644
1 12.9564 13.1744 16.5201
1 -5.07603 -8.03677 -16.6453
1 16.3489 18.4739 -14.8214
1 -19.1459 15.0726 -15.9975
1 9.44552 5.19382 -1.88957
1 -7.9571 -5.59561 -13.9695
1 6.96297 5.27675 2.16215
1 -17.997 13.8177 10.4911
1 -10.0835 -12.9864 1.13334
1 -16.3467 15.1771 -18.6638
1 -3.6749 8.07794 17.9534
1 0.237925 -8.16769 14.6616
1 6.69251 8.9827 4.63456
1 10.9315 12.7541 -13.1986
1 12.8044 10.1056 -5.8295
1 18.2478 -15.1174 -6.361
1 -19.2986 18.1555 10.5074
1 12.6057 18.9321 -16.4187
1 -15.7207 -2.02457 -7.38798
1 -19.978 8.20298 -16.4002
1 2.54725 -8.84545 -10.0091
1 -9.08264 -3.9303 -15.7246
1 7.17198 -12.0553 4.1077
1 19.2866 -8.29514 6.23742
1 -7.55145 -7.64303 6.64742
1 0.85428 12.7919 6.5682
1 2.83705 -14.6596 -1.6443
1 8.68152 -11.8619 10.7654
1 -9.85762 -6.31051 5.95746
1 -5.61496 -15.3113 6.60241
1 -3.74061 -9.81953 11.6876
1 -7.11163 12.7613 -4.86824
1 2.96273 -7.22347 5.76622
1 -1.43228 5.14021 18.1833
1 6.27206 14.1567 -12.4878
1 -13.6637 -4.01743 19.9504
1 -7.19746 13.5879 18.7339
1 6.01128 -6.90681 -14.2681
1 -14.1319 7.0868 8.04783
1 -15.7104 9.80597 -12.7797
1 -9.72873 19.0212 -1.98957
1 -15.9918 14.6394 3.31663
1 13.839 -11.1991 -9.4199
1 -5.90202 0.807375 -11.1338
1 -9.99526 -11.2696 -1.42183
1 1.31567 0.979597 -17.003
1 18.9216 -16.6504 7.16223
1 5.20668 -2.51497 8.87208
1 12.4389 -15.9292 17.5189
1 -5.66208 6.34182 -0.311277
1 -12.0665 -17.8252 -13.1429
1 14.0211 -3.3255 3.32063
1 -18.1439 16.3003 14.4975
1 -4.09166 5.8627 -19.3688
1 -15.0619 -9.16975 -9.66846
1 3.88045 11.8649 13.3036
1 -4.07824 10.0587 18.1806
1 14.9194 -4.72443 13.1451
1 16.6902 -1.35745 -18.0677
1 -5.98821 -5.48922 -6.3994
1 7.1909 18.6035 -8.37239
1 -8.72301 -11.2439 17.9822
1 -19.3614 0.195038 15.6723
1 5.3482 -6.69161 -1.12429
1 -1.47451 8.01594 -16.1893
1 -19.5744 2.15731 -4.53482
1 -14.171 19.6816 -16.9316
1 3.84258 10.4776 -12.0842
1 13.5973 -11.881 2.27141
1 0.367095 -7.95416 4.97081
1 5.81288 -13.322 -1.97407
1 19.3803 -2.3292 -0.246482
1 -1.43056 -4.49221 0.662528
1 -7.89954 -11.5202 9.78073
1 -4.99668 6.58497 15.3532
1 -1.94731 -4.01832 -19.9487
1 -11.6854 -14.1162 0.584826
1 -3.42766 16.2708 -3.70343
1 -4.31716 -8.91185 18.8748
1 16.2309 7.86727 -1.00748
1 -11.006 -8.44372 11.6945
1 -4.20111 -14.297 10.1952
1 -13.234 3.68615 -13.7765
1 5.02185 -3.24472 -0.719858
1 -16.1503 17.61 12.1811
1 -15.5586 -8.51117 14.869
1 7.78031 18.448 -12.0322
1 -3.12346 -6.67846 -16.9393
1 7.35404 2.81216 1.63934
1 18.2655 -5.42812 -14.8094
1 12.7117 8.92421 7.97397
1 -13.8688 -10.307 12.3225
1 -19.5774 -12.5933 -1.14468
1 -2.95234 -3.37166 13.1945
1 12.1424 9.95024 -12.5903
1 1.93323 17.8361 -13.8454
1 2.52036 5.89917 -8.0293
1 0.165431 8.88336 -3.87926
1 -4.34135 -1.09737 11.7303
1 -1.81254 -5.60083 -1.61495
1 -1.3203 10.117 -9.87154
1 -15.7248 -5.0686 -8.44831
1 5.63246 -1.89788 -5.55793
1 -1.56635 5.73803 10.9063
1 -15.99 7.24748 11.1501
1 -17.3141 5.58515 14.4617
1 -8.00027 9.04185 13.14
1 -12.1865 -2.69867 11.9481
1 -6.72753 -5.82282 -13.7564
1 -11.963 -3.78293 17.3229
1 -16.5626 -0.338698 -10.8199
1 4.71054 13.2275 7.92818
1 -13.7373 9.4982 -8.22472
1 -2.71042 -7.73136 14.0287
1 -8.57524 -19.4881 18.1569
1 0.347409 -4.87736 -16.3182
1 11.4986 16.6412 5.04828
1 -6.50167 -7.22146 14.3857
1 9.0238 5.61913 -4.98875
1 -5.86267 8.51128 6.13315
1 -9.86876 9.99912 7.10219
1 -17.631 19.5937 -3.81924
1 5.03476 -14.7435 0.0491276
1 17.4883 18.7615 6.51613
1 -8.28339 16.7188 12.0199
1 -16.2491 -19.9624 11.8125
1 10.1941 19.2791 -4.56971
1 1.08236 -8.986 -14.0929
1 1.0614 -17.5323 -19.3332
1 -19.1654 -14.566 7.63962
1 11.0999 -3.79611 -17.8931
1 -3.46858 -7.70766 -5.60017
1 14.3034 -12.3492 -6.29271
1 4.51422 -10.0053 10.9326
1 -17.7201 -6.60036 -12.6969
1 -7.84991 4.66002 -17.0365
1 -18.667 -6.76292 -19.9269
1 -9.849 -16.4128 1.01144
1 -9.64191 6.52165 -17.669
1 -11.2603 -5.42741 8.88687
1 -14.5492 -9.78611 2.25835
1 11.1683 15.4579 5.86186
1 2.72612 -13.2399 -19.9445
1 10.0398 7.91911 8.38118
1 0.113635 -10.2381 6.9879
1 8.29855 -19.3831 -17.6567
1 14.7316 -3.5482 9.01469
1 -5.41154 5.62797 19.0885
1 16.9117 -8.60235 -0.666717
1 14.4926 12.8618 0.371122
1 -10.952 9.60208 11.7371
1 18.3161 -0.969127 6.90699
1 -18.6791 5.26444 -6.65144
1 15.8695 -13.9971 2.8491
1 -15.4015 11.1509 -6.3472
1 7.10411 -1.53676 -10.2497
1 -8.26647 -15.1443 11.3466
1 12.3257 -14.1047 -3.52938
1 -3.56745 10.8232 2.4003
1 19.2708 -4.60645 3.83827
1 -1.23711 15.4284 -3.78844
1 -17.0782 16.3189 -6.65133
1 17.8967 -15.4044 18.4903
1 7.46723 -1.16412 -17.6721
1 11.2335 -9.92265 10.608
1 6.56582 -11.7622 15.6952
1 3.25072 5.7523 -16.2262
1 -11.9399 13.3103 13.8832
1 -10.8762 -3.1014 -0.927744
1 -0.78033 6.16321 13.745
1 18.9464 -19.4433 2.06045
1 14.2413 -8.83569 -3.83089
1 11.5206 6.27734 -6.34332
1 -19.7596 4.77858 5.45536
1 -4.50077 6.29738 19.0817
1 -6.33783 -4.66268 -1.19005
1 -4.11146 1.65777 -13.0284
1 0.685278 -13.1538 -11.6753
1 -9.72738 -17.9206 -8.36915
1 9.02897 -18.146 5.4173
1 -11.833 0.534347 7.59397
1 -5.97404 9.53667 -17.4049
1 -9.78598 -19.2652 -12.482
1 -3.17414 10.4021 -3.02157
1 14.617 -13.1247 8.28433
1 -16.0026 11.4904 6.05252
1 -13.4309 -19.9781 0.525028
1 16.3021 19.2531 -5.83901
1 -13.1772 -13.5775 2.65824
1 14.3896 0.503477 15.0765
1 9.49928 -10.3214 14.3112
1 -8.57925 13.4245 -1.26487
1 0.763773 -7.38954 12.7501
1 -1.76219 -9.11562 8.6518
1 1.64421 7.75373 -8.89209
1 10.2078 -17.5078 -8.03771
1 -10.8469 6.81982 3.64598
1 -0.959806 9.41025 10.726
1 9.94012 -5.67131 13.7708
1 19.0504 -19.8368 19.329
1 7.89278 -16.5693 2.69668
1 -13.4853 -16.7021 9.53574
1 -17.1637 -5.23157 15.492
1 -5.9601 -18.9365 -11.7061
1 8.87848 16.3799 7.8846
1 -2.30928 9.68563 -7.68553
1 2.00055 -14.6335 -4.45716
1 15.9249 5.99595 5.59613
1 12.5458 -0.202994 -16.0964
1 17.8925 7.54763 -4.64224
1 -9.89417 -13.0962 8.71404
1 -3.2198 -1.4039 5.45817
1 -18.8273 14.2323 -16.6899
1 15.1767 -15.6614 -10.3502
1 15.0717 4.04948 -6.37944
1 -19.5592 14.7254 0.334187
1 12.5732 -3.77485 9.89816
1 16.5542 -9.82996 -7.41257
1 -7.48971 -9.21932 13.1634
1 3.50389 -5.62138 18.9679
1 11.8365 1.76071 -16.8315
1 -11.0292 -6.71077 -4.34587
1 0.617193 -0.648302 -15.1575