6000
 Atoms. Timestep: 0
1 12.904 -2.35743 18.6924
1 3.38294 17.0627 11.9593
1 -0.743948 16.4674 7.68862
1 -17.3118 0.00998928 7.88986
1 4.95445 -10.6372 -19.927
1 6.87886 13.0525 12.639
1 -16.2894 -15.7753 -16.241
1 -2.46406 -13.4813 19.031
1 14.6921 9.37188 -6.79861
1 15.7803 -19.8951 -16.4748
1 -12.3524 -6.02341 4.60647
1 -19.0732 -3.79367 -0.17485
1 -18.7104 14.2829 11.8738
1 3.32328 14.4177 -1.40209
1 -4.84831 -5.62146 0.204444
1 -3.90661 -18.4632 8.68338
1 -18.4093 -4.39225 19.4034
1 -6.2931 -8.11919 -19.1614
1 -6.23198 19.1923 4.47756
1 14.2785 18.0749 -14.8808
1 18.92 -11.9941 15.8312
1 -5.64812 -7.94504 -12.3316
1 -17.508 -16.6728 -18.919
1 -11.461 15.053 -4.70076
1 -5.67607 2.27151 17.2279
1 -11.0086 18.9304 4.06293
1 5.72905 8.09257 11.8866
1 18.4702 -11.7862 -11.0949
1 7.27826 5.73501 -11.7634
1 12.5931 12.6035 -13.1202
1 9.30016 -12.2821 15.4716
1 -8.92847 19.1992 1.18594
1 12.0828 -4.23945 -12.3835
1 -9.48229 -8.8157 -5.44292
1 0.782764 -4.08193 -4.92877
1 2.17196 -15.8492 -17.4847
1 14.7656 5.64708 -9.47771
1 -11.8308 -0.836075 -11.9049
1 -6.19425 13.2788 16.1042
1 -16.7773 -16.8107 -18.2087
1 5.78729 -12.9423 -0.745351
1 -7.11251 -19.8825 -5.47497
1 -17.7995 4.13561 -12.7989
1 9.57947 2.14484 8.32365
1 15.5201 6.89977 4.51153
1 -14.6473 -17.8614 4.04495
1 -16.5998 6.47474 -19.0192
1 -15.974 5.56082 -19.3624
1 16.3353 -12.4226 14.1414
1 -5.32448 -8.56894 -18.2533
1 16.8432 3.68288 18.1714
1 6.85909 0.644014 -16.0523
1 9.53366 -7.79051 -15.1835
1 10.2901 -13.8205 -0.624742
1 19.9625 -9.83427 -4.51559
1 -13.4605 8.67534 6.4234
1 -1.9622 -18.7709 -2.64552
1 16.7876 -10.7183 17.4921
1 -10.4052 -0.716511 -2.40104
1 5.73509 -10.3828 15.859
1 -18.6177 12.7631 -10.5592
1 12.1184 -5.85811 -17.1924
1 7.0852 1.01278 -18.1507
1 -19.1914 9.90355 9.03801
1 -18.1833 -6.32882 -8.46588
1 -6.12188 -10.408 -6.85734
1 -11.3233 9.22177 -9.75459
1 14.6448 14.3618 18.4055
1 -18.2293 19.4 16.0923
1 -16.7004 -3.30131 -5.04314
1 -0.102664 -5.46852 10.6317
1 7.57522 -3.30198 -16.3028
1 -0.887709 0.266547 -0.14006
1 6.0061 -15.5042 -18.4512
1 10.0214 -9.8866 -4.11559
1 -10.7627 -9.45033 8.32462
1 -8.18255 -4.07171 6.81026
1 -19.9586 -4.67687 -4.10381
1 -12.7728 7.20656 0.644441
1 -8.87517 -5.0531 -7.48585
1 -14.6666 19.1575 -19.4882
1 -18.8299 6.06248 12.1417
1 -13.7423 -6.7154 14.2652
1 -5.1156 -17.954 7.68689
1 -6.38022 7.61878 8.82638
1 -15.0195 6.60026 10.6215
1 -4.3529 0.875653 -2.8997
1 -15.2558 -3.85148 -11.7535
1 19.286 -19.8314 13.9646
1 -16.578 13.1755 0.906093
1 -11.2931 -2.65997 13.8183
1 3.9103 0.48876 14.5952
1 -18.2913 18.4178 -12.4935
1 -18.3634 6.11161 -2.18444
1 6.10751 8.94664 6.18697
1 -15.6465 -11.5139 5.77112
1 -4.76992 -8.03372 17.2675
1 15.3135 13.6604 -9.5676
1 -2.64724 -12.2273 16.609
1 -13.231 -13.2123 -19.3511
1 5.8283 -3.7115 -19.125
1 6.70766 15.7153 7.84118
1 -13.2637 -2.32854 -15.7349
1 -16.5812 -1.03555 -4.52179
1 2.20957 16.2982 4.33956
1 14.9352 15.6047 -11.2164
1 5.70848 -17.5584 15.9963
1 9.86386 -18.1706 6.48613
1 12.3308 4.02346 -17.6747
1 -18.8269 15.6297 8.30766
1 -13.2189 -10.3159 -19.0241
1 -17.7633 12.5366 -17.6699
1 -17.6954 -5.78178 -14.4561
1 -4.14534 9.28472 8.24344
1 -12.572 -17.1079 -12.2366
1 -19.8712 -14.5056 4.19993
1 -11.7428 -1.00583 15.0754
1 12.7002 12.7132 -9.45109
1 -4.53254 -18.4609 7.50499
1 16.3735 -9.97625 9.17183
1 -8.99933 -11.7297 19.0711
1 7.15499 13.9119 17.7309
1 2.64356 -9.72973 -7.61653
1 -10.9658 16.9619 -0.517825
1 16.9107 17.8299 -12.6742
1 -15.9467 -15.9445 -19.0275
1 4.71917 -4.97604 7.69624
1 -9.24488 -18.763 10.6917
1 15.5612 16.7075 3.09766
1 -17.6028 -10.5758 12.9618
1 9.6072 -11.8603 -16.0483
1 -4.40364 -12.0593 -0.434676
1 14.3997 15.7412 2.62542
1 5.44978 -5.60459 3.61794
1 6.66181 5.05151 -19.2033
1 9.76294 5.79694 -10.8456
1 -2.69244 -11.9213 -1.81017
1 16.4394 17.2841 13.4088
1 1.67103 5.0186 -12.4716
1 -10.0482 -0.348143 -11.2377
1 8.23593 -18.647 0.662916
1 -18.3718 -14.8463 -1.93308
1 -9.33263 -13.4654 7.27014
1 -10.7262 4.83952 17.7469
1 -7.78874 14.7069 19.4106
1 -5.97394 -4.0409 4.59565
1 -0.909842 -11.7173 -13.3339
1 17.5085 -14.4684 -10.8279
1 16.2373 -19.7956 14.5921
1 9.95826 8.47048 3.32244
1 0.196267 18.6523 9.60862
1 12.0508 18.202 0.976725
1 15.8238 -9.97093 18.5058
1 -13.5473 -9.8916 -8.17111
1 -11.8689 -0.834916 7.56175
1 10.377 5.50876 -14.2497
1 -14.1724 4.75259 -3.19393
1 -0.425145 14.5939 -0.411419
1 5.27488 14.8481 -8.75028
1 14.1025 -19.6703 1.08603
1 12.8655 -10.0026 5.74008
1 -6.44564 -11.8862 -11.9856
1 -1.26403 -4.5593 11.875
1 -16.1128 -7.41318 6.69409
1 -12.4537 10.9502 -0.154295
1 6.76338 -7.84235 -6.42435
1 -14.1313 14.9864 -3.69062
1 11.7731 -9.20733 12.3539
1 -8.37998 -2.37808 -8.38421
1 6.56913 7.39084 17.8668
1 7.95716 15.9146 -3.67021
1 -5.21997 -12.0434 -12.7419
1 7.64384 -10.0426 13.3917
1 -5.27247 -14.3538 -4.21085
1 -11.717 -7.85511 19.2217
1 19.4813 -17.3895 14.6142
1 -19.6068 -12.2947 2.41466
1 -16.8736 5.73731 -13.0094
1 -9.11057 -1.41049 13.9111
1 3.48499 12.3001 7.2386
1 19.0673 -15.2021 18.6926
1 6.98996 0.198449 15.3402
1 -18.0711 -1.76822 1.59842
1 -15.3891 -4.8193 2.01739
1 -13.7837 17.8002 8.69056
1 -17.8124 -13.3532 12.0374
1 -8.06429 -16.4472 11.6991
1 -13.8589 -7.23092 -10.0331
1 14.4997 16.927 12.7731
1 -2.82317 -8.96006 8.30403
1 5.81899 -0.239821 9.32764
1 9.59113 -1.96114 -0.83913
1 16.7347 19.7018 8.46396
1 13.7865 -11.1175 -12.0918
1 12.4382 9.66014 -2.01965
1 15.8189 -11.826 0.564114
1 1.06048 -16.5834 3.22486
1 0.276383 5.16945 2.95179
1 10.7839 4.67326 -16.4579
1 -7.67788 -2.08656 11.2507
1 10.7493 -16.1642 8.71844
1 10.8691 -3.43331 16.3086
1 18.3939 -13.0562 5.05559
1 9.21949 -7.97044 0.886761
1 -16.2023 8.15735 -19.3389
1 10.4515 19.1131 -5.95826
1 19.5209 6.93369 14.593
1 -14.8367 0.0852825 -6.6576
1 -14.3274 -1.15883 3.51582
1 10.3312 -3.42607 18.034
1 17.182 17.8652 -19.3666
1 -14.0729 -3.19527 17.0935
1 9.6667 -11.8115 3.59792
1 -9.69676 -13.3922 -2.49849
1 7.85319 -11.4257 8.82802
1 12.6097 11.823 -11.0217
1 -0.965169 18.3985 -15.6634
1 -14.588 18.6812 14.7621
1 -13.0773 9.88274 19.1946
1 3.76405 -17.5941 15.4471
1 18.7055 -17.4124 -9.4289
1 8.51385 12.303 16.9811
1 1.67971 -9.11948 8.8551
1 -12.3132 12.2365 19.6301
1 3.14174 3.15614 5.31872
1 -8.22509 0.981634 18.3256
1 -1.74647 7.12179 15.9913
1 6.59692 -5.52925 -10.1062
1 -14.8448 -15.7902 14.2334
1 -19.6713 -16.1752 -16.357
1 7.34716 3.70112 4.7569
1 -10.7509 -9.82751 -10.9744
1 -6.3683 7.99919 2.38528
1 9.3899 16.0039 18.0651
1 -19.7551 15.4753 13.3738
1 13.654 2.68959 3.97699
1 1.32001 -14.6432 12.0078
1 14.4948 14.3535 -0.337525
1 7.21606 0.26606 -8.33239
1 -2.48902 7.06878 4.93667
1 10.588 -7.60448 -8.53806
1 -19.1938 10.2439 9.18886
1 -2.81718 11.6467 -14.4754
1 -8.66104 -6.17797 6.92181
1 14.8979 -10.9468 16.4779
1 -16.6557 -12.6717 -13.6902
1 -11.8572 -4.5477 6.85745
1 13.2029 -19.1066 -4.07123
1 14.7709 15.018 6.83266
1 -3.53563 16.7504 3.73252
1 12.5463 -14.8398 -11.9209
1 4.74019 -11.6934 -11.2855
1 5.22321 -13.4619 -14.9008
1 1.99039 12.5652 -16.4283
1 9.3285 -15.8653 -7.92019
1 5.419 -2.89817 10.4038
1 15.9407 -4.14413 -10.3915
1 -9.1668 13.5529 -16.0993
1 19.0362 -17.8977 -7.16444
1 -12.7487 12.3357 6.89407
1 -11.3897 13.9119 16.7626
1 8.78841 -13.2202 8.18915
1 -4.92846 7.33142 19.1223
1 -12.2321 15.2786 -12.8793
1 17.1763 1.86196 13.9399
1 7.45765 -19.2495 -6.81168
1 -3.84668 -11.1826 14.5074
1 -14.1604 5.34275 -4.42231
1 -5.79307 -4.1789 5.19414
1 17.9788 10.2434 1.09765
1 8.15593 -3.35963 14.6722
1 -4.74177 -14.9432 10.3158
1 17.399 -14.743 13.5743
1 -16.4435 -6.09382 -18.9037
1 6.11202 4.67553 -18.3904
1 -7.87635 -17.7994 5.49239
1 -9.40791 1.31813 -6.26829
1 8.85192 14.2847 2.55444
1 12.4989 -11.8224 -19.5009
1 7.9651 -10.5776 -17.3729
1 14.4019 12.1351 -5.61367
1 11.0948 -9.10713 16.5147
1 1.91171 10.0441 10.3485
1 6.73751 -2.68607 15.175
1 6.54429 -10.1075 4.03532
1 -18.4038 7.93511 5.42866
1 -0.531377 -10.8589 14.6276
1 6.53077 2.64797 -15.6121
1 6.80626 -7.21939 -16.2127
1 -6.9154 12.9554 -18.3638
1 -0.877965 4.04772 -9.89363
1 -2.31318 2.42258 -3.71667
1 13.8802 5.26978 9.19596
1 -3.56523 -0.767838 14.9399
1 15.1291 -5.22807 11.8357
1 3.12409 -13.483 -8.32713
1 5.93831 5.1834 -2.54577
1 13.3145 17.6148 12.483
1 0.988772 18.2885 14.7317
1 -4.27539 -16.4405 4.12267
1 9.63715 11.6529 10.69
1 -13.3097 -15.6699 -4.48749
1 18.7525 13.7068 10.0402
1 -14.2185 -9.49165 -6.14576
1 -11.7213 -0.542981 -5.87792
1 9.71512 1.99125 -13.0693
1 -16.1874 18.0095 5.62486
1 16.9994 -10.6153 -11.5642
1 0.168863 -1.92043 3.36023
1 -4.65818 -10.0275 -12.935
1 1.70101 -11.0634 17.4011
1 -19.047 -2.57396 19.431
1 17.1579 12.4662 -1.03914
1 15.1701 3.58321 -16.9693
1 -3.50101 -1.53218 8.6651
1 -5.73826 -2.87217 7.36936
1 16.8665 -5.10478 3.92616
1 -13.0393 7.9444 1.4946
1 -0.236503 -14.9048 15.2543
1 19.3227 -3.4591 -17.0384
1 -4.72008 -10.4187 12.213
1 -16.6481 -4.39252 14.8416
1 2.96095 4.65061 2.84967
1 14.4007 -7.73826 -16.8883
1 -2.38771 -10.2141 11.324
1 3.22905 -9.40901 -17.2498
1 2.9601 -9.66288 -3.98031
1 -17.061 16.2085 15.7665
1 -12.4644 -9.17182 9.22066
1 11.6183 -10.5525 3.47074
1 12.7455 14.4349 7.77819
1 8.02393 18.1189 4.08095
1 -11.5232 9.61283 2.78931
1 -0.130626 4.56928 -4.13185
1 -3.95093 -3.26779 -1.72456
1 15.2745 -1.19289 -8.82281
1 -4.97757 -17.9476 -5.96151
1 4.83832 -2.33055 -9.56893
1 15.0376 16.7082 14.2659
1 6.82086 -1.781 -13.2999
1 -11.545 2.89859 -3.381
1 15.5473 -16.0882 6.32783
1 -8.13572 -17.0958 -9.82568
1 19.8515 4.14862 5.79383
1 16.8329 -9.63676 -5.0697
1 -6.36412 -1.71751 13.8149
1 -13.0231 0.956646 -1.65742
1 -16.195 11.1832 -4.232
1 -7.24674 3.99687 15.3535
1 6.55442 0.0738159 0.623376
1 -2.91476 11.5937 15.8993
1 19.3917 -4.49715 16.35
1 -4.84288 5.79304 3.66205
1 -11.9497 1.84569 -19.4981
1 14.954 11.7794 16.5332
1 -6.89808 -15.9929 7.82431
1 -16.793 0.343773 17.7916
1 -16.7165 5.83713 -15.3069
1 16.1983 5.49977 -5.4451
1 4.12906 -2.8974 -16.6705
1 18.4901 3.38179 -2.17957
1 7.89182 -2.21331 0.907053
1 4.84803 0.874293 14.2348
1 3.94238 19.6392 -3.97891
1 6.5252 -10.9902 8.41389
1 12.2652 -19.2038 2.14131
1 -10.9627 -9.53261 -14.5369
1 -1.96781 6.97581 2.51036
1 -8.3318 7.39694 0.341248
1 15.3555 -0.911367 2.65913
1 11.9477 5.68364 4.99966
1 -10.7631 -16.1387 -3.86913
1 11.5091 -6.47445 -16.0708
1 17.5207 -9.00588 -1.89085
1 -19.4812 18.6577 19.769
1 17.8933 11.9621 7.18849
1 17.0201 17.3723 16.2481
1 2.30018 19.0473 8.76556
1 2.74394 -2.67538 -5.17381
1 3.856 7.8214 14.3536
1 0.424137 8.4736 15.776
1 -12.5016 6.41853 -3.82321
1 -16.6813 -2.29776 -18.4783
1 -4.22543 -16.7716 -0.154773
1 -1.26366 1.74062 14.533
1 15.9474 -12.403 -16.9905
1 0.932944 -0.0155418 18.7882
1 13.1982 -17.4488 17.4079
1 15.2715 -11.1486 -14.5245
1 6.25086 18.2603 -19.2379
1 -11.648 -8.11585 -3.0567
1 -13.9209 -8.04662 0.505273
1 12.118 -13.5852 -7.0814
1 -17.1615 6.56453 10.1004
1 -1.97526 1.81307 -7.67425
1 18.8893 -7.31884 -7.73703
1 3.70565 0.8865 19.4065
1 4.93518 -14.3731 -8.96447
1 14.0715 -19.5785 -16.2724
1 -10.4816 -5.03435 -12.3267
1 -15.2604 -0.795643 -12.3638
1 1.12139 7.26163 6.14673
1 -11.9225 18.7357 10.3287
1 -5.97741 17.6029 11.4937
1 13.79 7.78499 2.34777
1 18.9899 3.93702 9.45188
1 17.6887 13.4828 5.04162
1 14.4982 -8.29766 -18.7796
1 10.9992 -16.6813 -1.81284
1 11.6031 13.0803 1.19058
1 10.1033 5.44753 -3.37496
1 -3.00915 -14.8473 -18.8312
1 -15.2018 -16.0286 6.5973
1 0.876164 5.68113 2.77514
1 1.82378 12.2512 -14.7149
1 7.02051 -6.31816 10.6976
1 -6.24512 -1.8028 -19.6153
1 5.45036 4.22376 -11.2277
1 15.8254 17.8872 -10.1066
1 18.7091 4.42598 -12.5342
1 17.734 15.4174 0.0987398
1 19.5195 -16.4343 -10.9348
1 18.7923 2.52139 16.9249
1 17.334 13.0261 9.24419
1 7.12266 -9.47477 -2.46898
1 -16.2217 1.53479 -4.77419
1 0.177186 17.9675 19.2625
1 -15.5777 -14.2616 -13.9549
1 -19.3193 -19.3568 -8.95873
1 -9.43277 -16.5273 -15.1161
1 -16.1611 -19.4146 18.0987
1 -15.8421 -17.5371 13.4297
1 -6.73653 19.1362 -18.5289
1 -14.8297 -2.35326 8.76565
1 4.33832 -5.79718 6.74243
1 0.0608772 -16.837 -19.281
1 -15.6466 -13.2063 2.03981
1 3.13521 13.4618 11.6801
1 -12.421 0.732595 -7.27398
1 -13.702 -10.2191 8.11972
1 -11.8273 18.8412 -15.2243
1 5.28434 13.9187 11.5322
1 -17.9481 -14.085 -6.12426
1 -10.4308 9.94014 -16.0442
1 -14.1689 -16.164 12.3993
1 -4.2784 12.8618 8.63863
1 -10.519 7.82835 11.0795
1 12.8731 -1.28484 5.64958
1 -7.5052 -19.9345 0.282645
1 -9.59343 3.1893 2.63667
1 -5.50083 -12.4554 -17.3581
1 -17.5955 -7.91121 -3.71553
1 -6.83276 1.73337 12.7278
1 -4.52612 9.50135 9.20033
1 -10.0005 1.82559 2.72642
1 -17.0909 -6.30329 -19.3965
1 3.69866 3.3097 -13.8308
1 -14.717 11.311 -16.4149
1 -4.81813 -18.3751 10.4677
1 10.926 -5.96093 14.6028
1 -10.5246 -6.14474 5.28818
1 -1.57574 -3.49488 -18.4342
1 16.9944 -15.9321 -11.3003
1 -4.56945 1.26145 1.15175
1 -2.54018 -12.7978 -12.9865
1 15.7217 -5.26063 -15.446
1 -0.802166 -2.005 -18.0603
1 -18.8181 4.71859 -14.7048
1 15.7026 -7.1088 2.43103
1 18.3942 -8.22416 16.486
1 -0.0545831 2.62101 11.3791
1 9.19935 13.5034 -8.26274
1 8.05251 18.5071 8.22438
1 -12.811 4.93838 -0.585924
1 -7.62319 -3.01535 0.972127
1 18.5327 -0.336056 -8.08674
1 6.17184 10.0465 12.2133
1 -11.3262 1.30341 -13.5393
1 5.05066 6.37205 15.0964
1 4.73971 -19.7308 -15.3324
1 -11.2185 11.1986 14.4571
1 19.6644 19.6261 16.6621
1 -0.908436 11.9183 -9.21369
1 -14.4185 -11.07 -13.7709
1 -7.01999 14.9453 -13.9629
1 5.10389 -18.9838 19.5965
1 -2.36009 13.9976 17.3824
1 -13.8113 -7.21413 -7.88336
1 -15.6539 -14.7057 2.06307
1 -5.90446 3.69973 -18.7097
1 -13.6548 -16.8256 12.4701
1 -15.653 0.774904 -16.192
1 -18.5772 13.6607 -5.11408
1 7.61572 -2.57471 6.88003
1 -7.36221 -16.6769 -9.0827
1 -12.9932 -16.8847 18.5205
1 -5.27016 -15.5923 -19.6383
1 19.6501 19.4803 4.86311
1 14.2643 19.5403 14.3201
1 -1.88359 -17.4829 5.4838
1 6.20403 -8.8123 11.591
1 9.26008 -5.85696 2.04261
1 10.1379 -12.6748 15.4515
1 13.5033 -9.72502 -8.46783
1 1.20867 -5.96627 4.95833
1 14.604 9.59798 -6.70689
1 -2.75582 2.95145 5.00458
1 -8.09101 14.348 -13.2813
1 -18.7254 3.02916 -8.87708
1 2.9743 -10.9195 -3.753
1 3.29259 18.4828 0.343756
1 17.5145 6.8458 17.4087
1 -11.5216 -3.76186 14.3446
1 9.17548 12.3181 -9.99017
1 15.201 2.51657 16.0422
1 -18.3528 -15.9609 -14.7552
1 9.52021 6.15984 8.3585
1 1.32074 -2.27282 0.635703
1 4.26708 -3.24796 11.5579
1 14.106 -1.01355 5.23909
1 13.41 -17.3399 8.32035
1 0.105683 16.2216 -3.86016
1 2.26658 14.3695 -12.0947
1 4.93594 -1.57575 -3.63481
1 -10.3298 -13.2288 -16.5965
1 -17.1785 0.440299 0.10371
1 -16.9494 11.6401 -5.1068
1 9.99634 8.55698 17.079
1 6.40467 3.3038 6.95554
1 -18.2112 3.53836 -10.7532
1 -9.84405 -8.94667 -6.6049
1 -8.47134 -17.8103 -17.6882
1 -5.00056 -4.38683 -9.45003
1 13.3106 -8.08848 16.967
1 3.63631 -4.60702 9.84156
1 7.08029 -1.639 13.3608
1 -5.20541 -7.37165 -15.2708
1 -16.0831 10.5336 -1.50402
1 1.91093 -2.98028 -9.57705
1 -1.41548 10.1104 5.24921
1 -16.5752 -19.876 -15.4719
1 3.6895 9.4054 -3.38862
1 7.51888 9.85072 1.10417
1 -2.18381 16.7742 4.42886
1 -4.20731 7.79125 -12.3907
1 -10.3746 -6.72159 -9.73381
1 3.92497 6.95522 16.3119
1 -6.60578 16.6423 -13.2064
1 0.540594 5.75651 -10.2938
1 -7.33916 10.687 16.9109
1 -19.1407 -17.0272 -16.2386
1 -1.65142 4.51475 -0.55899
1 5.054 -17.3492 12.8079
1 -17.8368 16.6759 -8.74952
1 -13.2263 -14.7298 -3.67313
1 -14.2249 1.46543 -10.5789
1 0.669795 17.245 -3.93265
1 -16.0778 -19.3558 7.75808
1 -9.97881 6.21665 3.21969
1 -6.65267 -11.351 -16.4829
1 12.0386 12.4139 0.0677314
1 18.3609 -8.26976 10.2118
1 -10.1845 -10.4393 -12.8094
1 -7.42326 -2.77936 7.23582
1 12.4065 -3.49499 19.7617
1 14.9034 1.929 -19.3287
1 -18.073 6.78982 -3.57318
1 -14.4347 -4.20529 1.60712
1 10.8228 18.8773 -9.57758
1 -10.3651 -5.98111 -4.54883
1 -12.1741 -9.8673 0.319345
1 7.22997 -5.97563 7.58538
1 7.49852 -12.4449 -1.90562
1 12.3236 2.8744 -10.02
1 -6.97239 15.0476 -15.4206
1 -13.8396 -2.15704 -13.2953
1 -14.4071 -19.6154 3.57141
1 -15.3684 -16.9535 -16.8982
1 -8.87117 -17.828 4.23767
1 -17.4152 -18.0153 16.6635
1 -15.7614 18.6161 1.35917
1 3.49343 -6.00414 8.3699
1 -7.02274 8.74439 6.9046
1 5.54169 19.2114 6.72988
1 -10.9872 18.3374 -3.96879
1 16.4739 -3.70516 7.31272
1 -15.1581 -2.57544 -5.40268
1 -2.76692 16.3304 -14.5997
1 -17.8956 -11.4317 -13.3001
1 -15.5568 16.6284 -6.66916
1 -8.5103 7.42594 7.84892
1 -3.20599 -3.14971 -17.1633
1 16.273 -19.0163 -7.0385
1 -16.0035 -11.3006 -9.50382
1 -10.6832 7.10821 -12.2754
1 8.11433 17.6257 -4.96792
1 -15.8873 -18.2439 14.0208
1 7.60518 -19.6945 -5.84949
1 7.69434 -1.19651 10.3247
1 6.62753 -11.1214 2.49474
1 9.08193 -0.0711914 3.48573
1 -15.3728 -10.2221 -2.10178
1 -4.55229 9.71293 5.22516
1 19.2326 1.5784 8.11176
1 14.3183 8.05063 -13.0498
1 -7.92195 15.8572 -7.43155
1 17.9808 2.66243 -12.5533
1 16.9699 13.9088 5.74436
1 -14.4834 17.0297 18.0552
1 13.315 -15.0541 -13.4401
1 -8.39382 5.04007 -11.5417
1 19.1736 11.1924 -9.71975
1 0.16643 -2.81759 4.75602
1 14.3944 6.18908 19.8999
1 17.3353 -5.52811 9.09126
1 -3.17346 -16.3833 6.31497
1 15.7407 -6.80786 -19.677
1 8.18846 -16.5591 11.6552
1 9.16505 -3.02014 0.542408
1 -3.74694 -14.887 -5.41648
1 5.13709 19.0389 -14.0168
1 18.9061 -4.82823 11.8954
1 6.24079 8.97624 -16.3339
1 -4.54288 7.87665 -17.0912
1 -12.3628 18.7864 -16.166
1 18.0316 16.4633 18.3226
1 -12.5127 19.3667 16.7326
1 -15.0028 7.81924 17.9941
1 -12.5705 7.49196 -2.66087
1 -1.22243 14.5891 -1.81943
1 -19.2283 -10.3681 -17.3465
1 17.1631 19.4237 14.2789
1 -14.9919 -8.18501 -5.4372
1 16.9848 -16.3286 5.91586
1 -12.0604 -19.6562 -2.40798
1 9.06991 -2.09858 9.11469
1 -9.36621 -17.9595 -5.08282
1 13.0788 15.0442 8.66063
1 -0.81286 18.2643 8.2041
1 6.303 14.515 -6.44788
1 -9.46126 -15.4295 -2.86431
1 19.4653 -6.25315 -16.6831
1 7.62081 2.87923 -8.84182
1 -4.41865 15.6915 7.20777
1 -18.9463 10.1072 -7.71809
1 1.98218 -5.57552 12.1653
1 -18.4199 17.4242 8.05777
1 -13.1119 -12.3647 -13.477
1 12.4562 -9.34865 -2.84056
1 18.6631 -9.8624 2.64085
1 -15.1762 13.4938 -10.175
1 -10.9701 -14.6227 -4.05086
1 -2.72931 8.53326 18.512
1 11.9596 5.76884 -3.04681
1 -7.78646 12.9819 -12.4057
1 16.9664 -6.39773 -6.57444
1 -16.6299 -19.0809 -11.8587
1 10.1672 -0.166969 -6.24785
1 -7.60678 -7.15118 10.1901
1 -14.8463 -2.14001 -7.19175
1 8.3299 0.560654 -17.092
1 15.5586 13.8873 3.02815
1 14.11 -13.8696 14.2311
1 -17.4098 -6.1281 5.00356
1 14.757 -18.607 -7.6812
1 -18.0085 11.6623 8.92853
1 -18.1248 16.3216 -2.58418
1 7.72956 -9.33015 -11.8006
1 -12.8994 -0.0087447 13.0278
1 -1.27732 12.094 -16.6924
1 10.7719 3.54403 4.44765
1 -8.40454 -15.1348 -11.3622
1 -3.86339 -11.9927 -1.33118
1 -13.1208 -1.39066 -12.9007
1 18.6015 -5.00868 19.1529
1 -17.0626 -10.8629 -13.4427
1 -11.2739 0.0218568 7.34645
1 -8.20717 -17.88 10.4151
1 6.47776 -8.29213 -5.90785
1 -13.2071 -11.0133 19.1506
1 -15.3188 16.6441 17.0698
1 11.8433 9.83332 -11.4314
1 -7.93658 9.92016 8.0678
1 -4.56075 -12.4672 -15.4645
1 8.4653 -3.63823 12.2631
1 -13.4279 -2.08321 -12.5882
1 -9.8675 -3.04474 -12.9729
1 4.63268 -18.5873 2.82919
1 -9.86158 16.4366 9.11371
1 14.1073 -18.4144 -11.5054
1 -10.8858 2.43504 5.68441
1 17.8938 -19.6264 18.7417
1 -8.60378 -3.81191 13.1642
1 10.8753 -19.2809 -14.5913
1 3.34907 7.86146 7.519
1 11.796 16.1368 11.0751
1 18.851 -10.9466 -19.712
1 -18.7989 6.22333 -4.46001
1 0.544627 -6.45742 -9.94159
1 -8.29835 9.55565 1.81823
1 -1.07766 7.68454 -5.99824
1 -12.4493 4.01279 2.97465
1 -5.08759 12.9452 10.1545
1 -13.7849 -2.82161 17.1418
1 -17.388 0.241149 12.9882
1 11.9965 -15.2474 17.4793
1 14.4554 -8.23629 12.6729
1 -6.08736 9.71726 -1.97239
1 10.0454 -6.59348 -16.6311
1 1.71418 10.1937 5.37915
1 7.44731 6.88361 12.8251
1 -8.99401 -2.36132 -6.71068
1 13.6565 4.73034 -17.1172
1 -8.68286 -12.9025 -12.8784
1 -6.82317 2.97755 3.68478
1 10.1334 -8.59867 2.10722
1 16.0485 6.99918 -4.74865
1 -10.6163 12.3301 -8.8146
1 12.9991 -3.57326 -15.7007
1 -1.75791 14.8902 19.5775
1 -1.55105 11.5844 19.6978
1 -19.1377 -7.53544 -8.09693
1 -5.16335 19.527 -9.72442
1 1.63977 -0.368704 3.19524
1 -17.5693 -7.16422 -8.99206
1 -9.52594 17.4487 -19.3263
1 -17.8142 -2.82798 -9.79581
1 1.8439 -9.53605 7.66159
1 8.32861 18.9808 11.134
1 9.89163 8.7055 -6.73091
1 -6.43368 -10.9307 6.97001
1 -14.9755 -13.5439 7.05525
1 17.606 -15.9751 -14.053
1 11.156 18.7253 -4.69117
1 -4.48761 16.6795 11.9775
1 -14.6975 18.5346 -8.87749
1 -4.05503 7.10072 -18.2292
1 -17.9099 -11.7392 19.961
1 3.92204 -2.2883 -19.4511
1 4.70697 -9.98778 15.3358
1 -10.6598 1.03129 12.9077
1 19.6753 2.98577 -18.1607
1 13.0463 -10.9849 16.042
1 17.7409 10.8983 7.5164
1 8.06636 11.3763 1.44942
1 0.411898 2.76969 -9.78638
1 0.348854 -16.8049 0.458302
1 -17.3176 -16.6454 1.46781
1 -10.5505 -1.42048 6.00165
1 -10.3139 13.924 -19.4597
1 -19.7296 4.3475 -11.5579
1 -13.8824 -2.26722 14.8489
1 5.63772 -6.8278 5.15401
1 -16.5114 12.1547 4.56551
1 12.5625 18.4498 6.62625
1 7.43434 -11.0448 10.4991
1 18.5673 -18.7448 -3.54331
1 7.52952 -11.426 3.29572
1 -8.82195 9.53284 18.3731
1 -3.46995 0.528913 9.4383
1 -10.4791 -2.36217 19.0478
1 16.9742 4.83765 -13.5893
1 5.43056 -8.55471 -19.0256
1 -3.37116 -19.1062 1.7159
1 -0.927006 19.8174 -8.91379
1 -14.1296 3.93112 -9.59646
1 -7.72749 4.09457 17.394
1 -18.4836 -14.4513 -2.26993
1 9.22462 -1.79053 -13.3899
1 -3.30904 -15.088 16.4405
1 -4.84739 9.96366 19.2942
1 -1.69221 -0.936512 -19.9507
1 8.15603 -1.62531 3.44603
1 -2.60237 -18.0739 -8.4644
1 18.7547 10.3439 9.99558
1 -4.35998 1.85192 5.15671
1 -11.2199 -13.4038 2.78927
1 -0.778023 3.76344 12.1959
1 16.5102 6.22633 5.97154
1 3.74386 3.11774 -0.221501
1 -2.77392 18.7605 -12.0838
1 -12.6151 17.8645 8.08462
1 -1.76241 19.2311 17.4719
1 10.6782 -10.9709 12.2603
1 18.6162 2.75069 -9.08784
1 -19.3779 -3.63664 -1.00793
1 19.6877 11.4374 -12.3116
1 -1.8876 -4.87323 15.6822
1 10.5683 -18.3303 3.39512
1 -18.2265 -11.9929 -4.79763
1 6.16207 5.90003 1.78291
1 5.33668 13.5885 -17.8485
1 -19.823 -4.82701 -7.62016
1 7.98597 -19.8777 -3.82465
1 -0.886363 -17.1074 -4.39454
1 -19.0074 -17.9728 11.6321
1 -18.9709 -3.90113 -6.21913
1 -4.85347 -12.2882 -7.16936
1 -15.4509 -3.2561 -5.21821
1 17.6283 -1.41794 8.76556
1 2.68352 -18.1471 1.55311
1 -16.923 14.8583 3.98865
1 -2.7603 7.63798 11.6078
1 11.6693 5.78249 -13.7176
1 8.26625 10.8055 8.79791
1 -13.5109 1.95516 -19.5848
1 -1.23248 5.71854 -8.45873
1 -5.93796 0.697331 0.0397766
1 -11.4755 12.0943 -11.1808
1 4.94384 11.0361 4.21655
1 -12.4053 -15.3175 -0.66164
1 -0.175182 15.7081 6.79386
1 -15.6178 -7.6048 -13.8653
1 5.66459 4.81319 15.2171
1 -6.82034 10.5077 3.1952
1 -18.2965 10.3445 -19.8386
1 12.7038 -7.28298 -5.01393
1 10.8001 -2.93747 -10.0178
1 -9.81999 -4.54909 -16.5077
1 -4.97135 6.54034 3.47892
1 -9.85033 5.50473 -2.04637
1 6.58405 18.0885 14.1733
1 10.104 18.7464 -9.10384
1 -8.22147 -18.1971 0.569346
1 9.00601 4.06501 0.678795
1 8.50082 -6.76237 -15.1547
1 14.8999 -18.1941 11.5982
1 11.1692 1.43836 14.577
1 -5.17919 -6.59241 1.38837
1 14.3176 -4.11249 1.44289
1 10.7347 18.5142 8.34945
1 9.13011 9.68348 -9.78706
1 -11.1603 -11.0146 -2.50431
1 -9.85559 -2.83401 8.84676
1 7.51873 7.28148 19.8791
1 -12.299 11.1089 -12.3998
1 -4.12899 3.98464 9.90005
1 -9.79876 -7.70547 14.2042
1 9.91835 17.6514 -13.0206
1 3.00867 6.66281 -18.1262
1 -6.61998 18.0667 6.7365
1 -19.6349 -3.05898 -12.3415
1 17.1669 3.30598 3.58232
1 8.11424 15.9978 -4.82786
1 18.2057 -17.4714 -1.56458
1 -15.9056 -4.9747 -9.71059
1 -5.95807 -17.3189 1.89255
1 8.02214 -11.9134 11.4957
1 9.06184 -17.7114 4.41384
1 -16.5955 -0.677413 14.7128
1 -1.63497 0.98876 18.0834
1 8.44165 -1.13483 6.92602
1 5.62105 -7.09353 19.084
1 -15.5656 -10.8755 15.3762
1 -12.2419 10.0436 2.41472
1 -15.7491 -14.9133 -7.63671
1 9.74038 -13.4138 -6.03303
1 2.85545 -8.41741 8.54619
1 -4.25737 6.37642 8.43697
1 0.0908859 7.51929 16.7079
1 9.25263 -11.0247 -12.3262
1 -6.22841 -0.926614 -13.5978
1 -18.2804 1.96429 13.8061
1 -0.553592 15.7735 -14.4471
1 -12.9878 -5.65962 -1.23633
1 -18.962 -14.6166 19.2131
1 -5.79894 17.1722 13.4667
1 14.6863 -7.90144 0.555583
1 17.6792 14.3073 -17.8472
1 1.43751 0.205233 9.34969
1 -19.7577 12.9781 3.18419
1 -3.24552 12.4732 -2.12216
1 12.9382 13.0908 16.5952
1 -4.98888 -8.07144 -16.6183
1 16.3157 18.4367 -14.8926
1 -19.1673 15.019 -16.2189
1 9.43687 5.41192 -1.88779
1 -8.03508 -5.58422 -13.9819
1 7.01645 5.4312 2.26227
1 -18.0179 13.8568 10.4141
1 -10.0299 -13.0564 1.12237
1 -16.4113 15.0188 -18.3235
1 -3.70512 8.02867 17.9187
1 0.199435 -8.08861 14.78
1 6.71679 9.04175 4.64869
1 10.6035 12.406 -12.7868
1 12.8381 10.0407 -5.85363
1 18.0963 -15.1774 -6.46034
1 -18.9196 17.7004 11.0009
1 12.6006 18.9292 -16.4202
1 -14.9701 -2.15668 -7.23865
1 -19.9436 8.23132 -16.2645
1 2.54127 -8.81835 -10.0107
1 -9.04408 -3.92548 -15.624
1 7.17248 -12.0733 4.1256
1 18.9035 -8.49374 5.74478
1 -7.42123 -8.5318 6.07371
1 0.848027 12.7903 6.57124
1 2.78607 -14.594 -1.6369
1 8.65521 -11.873 10.8377
1 -9.94385 -6.32793 6.39702
1 -5.33917 -15.4527 6.43519
1 -3.71808 -9.76666 11.7352
1 -6.94874 12.5802 -5.00965
1 2.89597 -7.35612 5.7618
1 -1.49672 4.62057 18
1 6.26965 14.003 -12.3742
1 -13.6684 -4.0376 -19.9802
1 -7.12479 13.605 18.4784
1 5.90904 -6.81942 -14.0283
1 -13.92 7.1475 7.96717
1 -15.7095 9.78088 -12.7667
1 -9.79717 18.9825 -1.93824
1 -15.933 14.6013 3.25899
1 13.834 -11.1959 -9.44165
1 -5.87607 0.841841 -11.1793
1 -9.80611 -11.2287 -1.44456
1 1.34236 0.965252 -17.018
1 18.9292 -16.6331 7.20208
1 5.37856 -2.52224 8.78756
1 12.5414 -15.8781 17.421
1 -5.68059 6.34258 -0.300592
1 -12.0508 -17.8814 -13.1889
1 13.7702 -3.71966 3.64028
1 -17.8844 16.8391 14.4699
1 -4.1503 5.85593 -19.3167
1 -15.0824 -9.16818 -9.67668
1 3.96095 11.7673 13.4727
1 -4.25715 10.1112 18.2695
1 14.9506 -4.63776 13.2336
1 16.5763 -1.33385 -18.0833
1 -5.98355 -5.47667 -6.40643
1 7.21239 18.6275 -8.38274
1 -8.66135 -11.2942 18.0389
1 -19.4133 0.28892 15.8794
1 5.34499 -6.67824 -1.13295
1 -1.50366 8.01237 -16.1206
1 -19.6679 2.22737 -4.55133
1 -14.1691 19.4076 -16.9427
1 4.00609 10.2712 -12.375
1 13.615 -11.8973 2.26809
1 -0.205147 -7.91308 4.83405
1 5.93483 -13.366 -2.00038
1 19.675 -2.36809 -0.530817
1 -1.44252 -4.36719 0.630222
1 -7.85931 -11.3828 9.74088
1 -5.01894 6.66004 15.3483
1 -1.93991 -4.00428 -19.8757
1 -11.6864 -14.1131 0.587642
1 -3.49281 16.3763 -3.97003
1 -4.35586 -8.89755 18.8598
1 16.6888 8.07753 -0.897904
1 -11.0721 -8.53623 11.6021
1 -4.34429 -14.5409 10.4139
1 -13.2062 3.64766 -13.7416
1 5.01914 -3.23679 -0.719718
1 -16.2922 17.572 12.2654
1 -15.5655 -8.57174 14.8395
1 7.74072 18.2964 -12.2213
1 -2.923 -6.86006 -17.0187
1 7.4304 2.78703 1.6385
1 18.2587 -5.45813 -14.8074
1 12.7095 8.92533 7.96966
1 -13.871 -10.2498 12.3889
1 -19.5759 -12.6091 -1.1616
1 -2.94182 -3.24072 13.1572
1 12.5049 9.55003 -12.6232
1 1.90979 17.8132 -13.8322
1 2.67543 5.99463 -8.17278
1 0.0647868 8.87227 -3.79628
1 -4.03414 -1.73667 11.8331
1 -1.81148 -5.58586 -1.62083
1 -1.31314 10.1238 -9.85162
1 -16.1721 -4.88895 -8.58894
1 5.64515 -1.89954 -5.53351
1 -1.66801 5.71256 10.9374
1 -15.8049 7.19528 11.092
1 -17.2734 5.61282 14.741
1 -7.98185 8.97323 13.0795
1 -12.1903 -2.68389 11.9161
1 -6.67852 -5.8103 -13.7474
1 -11.9524 -3.78549 17.3204
1 -16.5407 -0.295762 -10.8785
1 4.70359 13.195 7.82449
1 -13.7294 9.49556 -8.06109
1 -2.70886 -7.75545 14.077
1 -8.65709 -19.6955 18.34
1 0.316247 -4.84419 -16.3258
1 11.5652 16.2887 4.84285
1 -6.2645 -7.49841 14.2851
1 9.07036 5.59975 -5.05538
1 -5.74709 8.65628 6.08259
1 -9.90718 10.0105 7.15073
1 -17.6962 19.5845 -3.8124
1 5.02322 -14.732 0.0629227
1 17.5414 18.8687 6.51584
1 -8.29079 16.7176 12.0154
1 -16.4753 19.99 12.1432
1 10.135 19.2917 -4.56944
1 1.39888 -9.04469 -14.1107
1 1.0985 -17.5938 -19.355
1 -19.1572 -14.5816 7.64272
1 11.2023 -3.76378 -17.8666
1 -3.52994 -7.61858 -5.51113
1 14.4266 -12.1858 -6.42562
1 4.55466 -9.76432 10.9991
1 -17.6502 -6.19101 -12.3358
1 -7.806 4.60659 -17.044
1 -18.676 -6.82691 -19.9042
1 -9.82783 -16.3883 1.05138
1 -9.53849 6.57002 -17.6743
1 -11.2028 -5.51861 8.78833
1 -14.6064 -9.78388 2.25687
1 11.2201 15.3892 5.71683
1 2.73616 -13.398 -19.8031
1 9.05623 8.05191 8.42983
1 0.168369 -10.2239 7.02852
1 8.31918 -19.4715 -17.6632
1 14.7627 -3.51942 9.09113
1 -5.36172 5.65116 19.0669
1 17.1638 -8.52744 -0.665525
1 14.5138 12.8661 0.380141
1 -10.9687 9.799 11.7248
1 18.3423 -1.24908 6.71036
1 -19.037 5.67106 -6.42971
1 15.8902 -13.9178 2.81696
1 -15.4096 11.1069 -6.37787
1 7.19454 -1.40956 -10.4747
1 -8.10464 -14.6337 10.9438
1 12.3274 -14.1086 -3.53446
1 -3.59071 10.8718 2.44299
1 19.2536 -4.55263 3.94114
1 -1.26284 15.4195 -3.72089
1 -17.0705 16.2976 -6.41294
1 17.7988 -15.4353 18.5403
1 7.45635 -1.20531 -17.661
1 11.2066 -9.91667 10.6103
1 6.49659 -11.7418 15.6556
1 3.24185 5.75854 -16.194
1 -11.9347 13.3 13.8817
1 -10.9766 -3.09401 -0.963939
1 -0.92544 6.12684 13.7763
1 18.9457 -19.4394 2.05951
1 14.2316 -8.84178 -3.81915
1 11.4861 6.57545 -6.34616
1 -19.9224 4.55558 5.59978
1 -4.53821 6.26995 19.056
1 -6.31669 -4.64813 -1.16643
1 -4.14103 1.68427 -12.509
1 0.694166 -13.1595 -11.6981
1 -9.74701 -17.9335 -8.38644
1 9.10461 -18.7395 5.4137
1 -11.8784 0.459776 7.4632
1 -5.916 9.71158 -17.4647
1 -9.86132 -19.1475 -12.0047
1 -3.14569 10.336 -2.91934
1 14.6455 -13.1107 8.31226
1 -15.9022 11.4932 5.95388
1 -13.11 -19.925 0.131854
1 16.0682 18.7562 -5.26287
1 -13.0263 -13.6918 2.5831
1 14.0823 0.772015 15.256
1 8.3388 -9.74031 14.5815
1 -8.52898 13.4586 -0.982904
1 0.325636 -7.03203 12.6803
1 -1.82121 -9.06714 8.66078
1 1.80209 7.67008 -8.94565
1 10.4851 -17.2956 -7.80454
1 -10.9141 6.84974 3.6508
1 -0.944281 9.46098 10.7152
1 9.76225 -5.8872 13.7597
1 19.0099 -19.8763 19.3258
1 7.89096 -16.5644 2.69569
1 -13.5192 -16.6996 9.60688
1 -17.1384 -5.13266 15.3671
1 -5.70826 -18.6596 -11.6756
1 8.85204 16.2604 7.95368
1 -2.49361 9.81688 -7.73951
1 2.0221 -14.6347 -4.76373
1 15.9866 6.00974 5.65077
1 12.5638 -0.215155 -16.1018
1 17.7669 7.56086 -4.70101
1 -9.93236 -13.2392 8.82946
1 -3.29632 -1.20394 5.29904
1 -19.015 14.305 -16.6707
1 15.0856 -15.556 -10.4947
1 15.0844 4.03842 -6.339
1 -19.56 14.7225 0.298241
1 12.5326 -3.76451 9.89924
1 16.5996 -9.85824 -7.39735
1 -7.31893 -9.18585 13.4303
1 3.22926 -5.90593 19.0642
1 11.9023 2.13617 -17.3648
1 -10.9292 -6.62131 -4.38623
1 0.606852 -0.631597 -15.2495
1 -17.6135 9.53638 -2.05259