6000
 Atoms. Timestep: 73
1 12.7242 -2.35661 18.7624
1 3.11288 17.085 11.6709
1 -0.696717 16.4493 7.63318
1 -17.3705 -0.206647 8.22279
1 4.94242 -10.6198 19.9484
1 7.07641 12.9039 12.9559
1 -16.1543 -15.8246 -16.2159
1 -2.61179 -13.4434 19.0763
1 14.9927 9.07924 -6.7135
1 15.8329 -19.8737 -16.217
1 -12.4784 -6.46214 4.29473
1 -19.1868 -3.7983 0.100465
1 -18.8486 14.1248 11.9912
1 3.28447 14.7483 -1.85641
1 -4.90967 -5.89533 0.367196
1 -4.52672 -18.3343 8.64107
1 -18.4046 -4.35721 19.4277
1 -5.60821 -7.47184 -18.706
1 -6.50821 19.1882 4.31327
1 14.2023 17.8889 -14.9131
1 18.8587 -12.1569 15.7852
1 -5.87896 -8.26726 -12.5792
1 -17.5098 -16.7005 -19.0545
1 -11.5485 15.1017 -4.82605
1 -5.6419 2.33239 17.1733
1 -11.0391 18.9729 4.04007
1 5.65316 8.14559 12.0665
1 18.41 -11.8214 -11.1323
1 7.27554 5.76432 -11.784
1 12.484 12.5651 -13.0949
1 9.19203 -12.2633 15.528
1 -8.80666 19.2085 1.40275
1 12.281 -4.4586 -12.7551
1 -9.53016 -9.08975 -5.11697
1 0.806159 -4.40851 -4.81097
1 2.22281 -15.9511 -17.5396
1 14.7659 5.65641 -9.48561
1 -11.8643 -0.624069 -12.0819
1 -6.23742 13.0572 16.0422
1 -16.8407 -16.8407 -18.1659
1 5.76042 -12.9719 -0.884515
1 -7.11251 -19.8825 -5.47497
1 -17.8208 4.23087 -12.9022
1 9.60114 2.14035 8.29214
1 15.6184 6.88717 4.47315
1 -14.8392 -17.7792 4.08095
1 -16.4844 6.32417 -18.8754
1 -15.9303 5.45473 -19.271
1 15.9474 -12.0141 13.6641
1 -5.34304 -8.48061 -18.2569
1 17.0571 3.49516 18.2362
1 6.91906 0.64102 -16.1324
1 9.53374 -7.65705 -15.3705
1 10.4273 -13.5544 -1.03545
1 19.844 -9.90674 -4.15732
1 -13.6048 9.30912 6.5324
1 -1.97157 -18.9353 -2.56218
1 16.6461 -10.7313 17.4495
1 -10.477 -0.859534 -2.75588
1 5.62596 -10.3047 15.9365
1 -18.5538 12.7633 -10.5004
1 12.0932 -5.91354 -17.137
1 7.09585 1.27743 -18.3422
1 -19.1949 9.43343 8.93449
1 -18.1235 -6.43253 -8.51436
1 -6.15372 -10.1908 -6.58821
1 -11.3196 9.29948 -9.76643
1 14.8234 14.1306 18.2889
1 -18.2971 19.4345 16.0896
1 -16.7851 -3.59292 -4.94419
1 -0.0332885 -5.39369 10.6605
1 7.51889 -3.4099 -16.3281
1 -1.06301 0.218896 -0.0204276
1 6.14217 -15.4143 -18.7135
1 9.84445 -10.0041 -4.1571
1 -10.5302 -9.72359 8.6034
1 -8.47616 -4.27044 6.87574
1 -19.8567 -4.46723 -4.0821
1 -12.8033 7.27237 0.725429
1 -8.96497 -5.09935 -7.44605
1 -14.6284 19.0124 -19.5952
1 -18.809 5.91598 12.0937
1 -13.8187 -6.6991 14.2418
1 -5.26736 -17.8355 7.90966
1 -6.59394 7.38974 8.8228
1 -15.579 6.62867 10.4146
1 -4.31191 1.06256 -3.05297
1 -15.1655 -3.68822 -11.8185
1 19.2752 -19.8387 13.9665
1 -16.5539 13.172 0.964955
1 -11.2703 -2.72404 13.826
1 3.86763 0.559406 14.8528
1 -18.3604 18.1743 -12.4719
1 -18.3185 6.24372 -2.31148
1 6.07291 8.82992 6.17966
1 -15.8 -10.9792 5.29562
1 -4.9057 -7.93396 17.2472
1 15.3051 13.5659 -9.56224
1 -2.5491 -12.3884 16.5966
1 -13.4902 -13.1539 -19.1745
1 5.73702 -3.63037 -19.1055
1 6.79199 15.6198 7.92865
1 -13.4143 -2.3449 -15.5611
1 -16.1935 -0.259743 -3.96384
1 2.22193 16.3712 4.28121
1 14.7905 15.5624 -11.2842
1 5.68164 -17.5804 15.9177
1 9.77307 -17.6819 6.56082
1 12.6003 4.19846 -17.4499
1 -19.0094 15.52 8.29783
1 -13.1967 -10.4903 -18.9244
1 -17.7319 12.5181 -17.597
1 -17.7484 -6.15885 -14.245
1 -4.05198 9.45259 8.18608
1 -12.4928 -17.167 -12.327
1 -19.8668 -14.7374 4.16338
1 -12.2598 -0.860369 14.9608
1 12.7426 12.8327 -9.53324
1 -4.52356 -18.59 7.5646
1 16.4175 -10.0264 9.23565
1 -8.7528 -11.565 19.0456
1 7.33088 14.1461 17.9341
1 2.7221 -9.84405 -7.67203
1 -10.9581 16.8573 -0.348806
1 17.015 17.6619 -13.0517
1 -16.4935 -16.0451 -18.8639
1 4.57403 -5.2888 7.82124
1 -9.13489 -18.6719 10.6544
1 15.5132 16.7015 3.13495
1 -17.588 -10.6876 12.8275
1 9.35885 -11.7559 -15.9875
1 -4.391 -12.0575 -0.445202
1 14.471 15.7869 2.65588
1 5.40131 -5.77672 3.67839
1 6.65394 5.08294 -19.2238
1 9.76431 5.79064 -10.8475
1 -2.67037 -12.1128 -1.58239
1 16.3276 17.1038 13.4494
1 2.20699 4.61321 -12.5039
1 -9.98145 -0.316776 -11.2151
1 8.75798 -18.7648 1.10634
1 -18.304 -14.9293 -1.60566
1 -9.82502 -13.4541 7.62044
1 -10.6988 4.87338 17.7723
1 -7.79979 14.5852 19.3572
1 -5.52133 -3.87008 4.27414
1 -0.967085 -11.6631 -13.3618
1 17.5938 -14.7791 -10.7213
1 16.3108 -19.8786 14.4782
1 10.0021 8.95697 3.22798
1 0.172298 18.6254 9.64952
1 12.4669 18.108 0.89678
1 16.1515 -9.55626 17.957
1 -13.5478 -9.85521 -8.27033
1 -11.9465 -0.763418 7.474
1 10.3791 5.4241 -14.0798
1 -14.169 4.80473 -3.34207
1 -0.782311 14.2986 -0.838953
1 5.17972 14.7629 -8.57349
1 13.9749 -19.6487 1.17103
1 12.888 -10.0023 5.79413
1 -6.84324 -11.8183 -11.7872
1 -1.25672 -4.46288 11.9031
1 -16.2426 -7.46289 6.67345
1 -12.5063 10.9966 -0.226395
1 6.86187 -7.66538 -6.53826
1 -14.3097 14.8542 -3.71986
1 11.7218 -9.26877 12.3624
1 -8.90803 -1.62293 -8.4728
1 6.57439 7.30965 17.8031
1 7.82926 16.0683 -3.64523
1 -5.16109 -12.4289 -12.9081
1 7.72018 -10.3005 13.3304
1 -6.14814 -14.3263 -3.44952
1 -12.1896 -8.27382 19.8145
1 19.4764 -17.3858 14.6016
1 -19.6038 -12.0968 2.49893
1 -16.9294 5.67953 -13.0491
1 -9.00185 -1.55359 13.9773
1 3.52601 12.3786 7.2771
1 18.9163 -15.8785 18.5515
1 7.07453 0.409842 15.5295
1 -17.9868 -1.86225 1.47756
1 -15.3233 -4.88121 1.97289
1 -13.6978 17.8416 8.6729
1 -17.2541 -13.3472 11.7391
1 -8.07981 -16.3204 11.6558
1 -13.855 -7.21599 -10.0206
1 14.4742 16.9975 12.9198
1 -2.79198 -8.97193 8.31353
1 6.07915 -0.209046 9.385
1 9.25405 -1.645 -1.23577
1 16.9022 19.7225 8.17723
1 13.582 -11.4051 -12.0625
1 12.6547 9.88945 -2.06762
1 15.8414 -11.6611 0.511222
1 1.33225 -16.5894 3.31336
1 0.274411 5.2879 2.25095
1 10.356 4.66311 -16.6166
1 -7.56342 -1.88165 11.0837
1 10.7615 -16.2042 8.71398
1 10.7982 -3.53179 16.8393
1 17.8768 -12.8005 5.49011
1 9.13072 -7.94318 0.936975
1 -16.4523 7.3409 -19.3362
1 10.4972 19.1028 -5.66927
1 19.5278 6.93653 14.5885
1 -14.8779 -0.0946693 -6.70101
1 -14.316 -1.13215 3.49409
1 10.3468 -3.44387 17.8336
1 17.1554 17.8994 -19.3224
1 -14.3032 -3.44079 17.0258
1 9.75946 -11.8642 3.65557
1 -9.77285 -13.4805 -2.55527
1 7.77364 -11.0487 8.68708
1 12.9229 11.8215 -10.9237
1 -1.02239 18.4494 -15.6493
1 -14.5884 18.407 14.9635
1 -13.0537 9.92208 19.2436
1 3.73543 -17.6315 15.3811
1 18.6702 -17.3538 -9.50462
1 8.52236 12.4495 16.8641
1 1.79406 -9.07017 8.75875
1 -12.3232 12.1796 19.6024
1 3.18916 3.07781 5.36499
1 -8.26735 0.995207 18.3638
1 -1.44502 6.95656 16.0297
1 6.82987 -5.37531 -10.086
1 -14.801 -15.9975 14.3357
1 -19.8895 -16.2229 -16.3507
1 7.4689 3.68224 4.68129
1 -10.756 -9.90798 -11.0405
1 -6.50718 8.13933 2.23609
1 9.52802 16.0012 18.0617
1 -19.6608 15.4269 13.3831
1 13.7234 2.55549 4.27034
1 1.42195 -14.5001 11.6807
1 14.4836 14.2817 -0.401122
1 7.17031 0.202517 -8.22606
1 -2.50698 7.01112 4.94308
1 10.5853 -7.69235 -8.57914
1 -19.0996 10.5654 8.94716
1 -2.88538 11.7235 -14.4926
1 -8.47783 -6.10722 6.75344
1 14.8781 -10.9993 16.669
1 -16.539 -13.0105 -13.5306
1 -11.6842 -4.25024 7.26717
1 13.1582 -19.1448 -4.13461
1 14.7615 15.0205 6.83836
1 -3.62765 16.8573 3.72362
1 12.4642 -14.7014 -11.8783
1 4.59651 -11.7933 -11.5562
1 5.39731 -13.5528 -14.8582
1 2.11882 12.4874 -16.4029
1 9.53131 -15.86 -8.09182
1 5.47214 -2.81238 9.97779
1 15.5364 -4.11495 -10.3758
1 -9.19413 13.7591 -16.2791
1 19.163 -17.7337 -6.86752
1 -12.7352 12.311 7.01573
1 -11.4334 13.9163 16.8013
1 8.51088 -13.2207 8.34811
1 -4.97907 7.33089 19.0562
1 -12.1604 14.9954 -12.7542
1 17.0357 1.93193 14.0381
1 7.38954 -19.2289 -6.81228
1 -3.78714 -11.6711 14.8388
1 -14.129 5.26926 -4.3632
1 -5.78519 -4.82589 4.79637
1 17.9705 10.2376 1.03735
1 8.10835 -3.33475 14.6864
1 -5.02165 -15.0952 10.2724
1 17.3764 -14.8005 13.6283
1 -16.3425 -5.96241 -18.8605
1 6.27783 4.37988 -18.4342
1 -7.97743 -17.8434 5.46545
1 -9.51503 1.46136 -6.39962
1 8.86587 14.2338 2.38136
1 12.6723 -12.1413 -19.1906
1 7.88861 -10.189 -17.6971
1 14.4049 11.9785 -5.64156
1 11.0767 -9.21754 16.4174
1 1.91018 10.0574 10.3426
1 6.78242 -2.70936 15.1451
1 6.56503 -10.1739 3.9925
1 -18.5787 7.92793 5.43335
1 -0.217401 -11.2716 14.712
1 6.47083 2.66222 -15.3445
1 6.85202 -7.28606 -16.1859
1 -6.8611 12.9122 -18.3495
1 -0.516604 4.22323 -9.41975
1 -2.2947 2.44361 -3.45162
1 13.8917 5.35338 9.20928
1 -3.62243 -0.875848 15.0796
1 14.998 -5.53687 12.2759
1 3.17999 -13.4916 -8.35116
1 5.87456 5.41004 -2.10002
1 13.388 17.656 12.4071
1 1.01533 18.4123 14.7258
1 -4.12011 -16.8093 4.22811
1 9.7918 11.6123 10.7239
1 -13.3097 -15.6556 -4.37456
1 19.0162 13.5733 9.9139
1 -14.3408 -9.80528 -6.28005
1 -11.6588 -0.5167 -5.93068
1 9.71363 2.00283 -13.0559
1 -16.0864 18.1336 5.9232
1 16.9657 -10.6203 -11.5895
1 0.145343 -1.95824 3.4326
1 -5.12327 -9.37422 -12.9144
1 1.66473 -11.103 17.3394
1 -19.0845 -2.44593 19.6886
1 17.186 12.6807 -0.82747
1 15.2942 3.70679 -16.9237
1 -3.51866 -1.58785 8.64826
1 -6.01235 -2.63166 7.15812
1 16.643 -4.71263 4.02738
1 -13.1548 8.01901 1.4921
1 -0.286694 -14.9028 15.2925
1 19.3487 -3.47089 -16.9265
1 -4.82377 -10.482 11.8682
1 -16.912 -4.55667 14.6412
1 2.99113 4.6222 2.84118
1 14.4254 -7.97091 -16.8327
1 -2.53639 -10.18 11.3499
1 4.15462 -9.56299 -17.2467
1 2.9702 -9.87092 -4.1162
1 -17.2404 16.4655 15.6638
1 -12.3626 -9.24259 9.38781
1 11.4027 -10.675 3.47156
1 12.7893 14.4842 7.72095
1 7.80438 17.5052 3.8816
1 -11.4434 9.50174 2.92543
1 -0.093376 4.48455 -4.24913
1 -3.93288 -3.22339 -1.64661
1 15.1728 -1.57953 -8.82852
1 -4.97382 -18.0071 -5.93226
1 4.79801 -2.3934 -9.57931
1 15.2033 16.9031 13.8499
1 6.74719 -1.70507 -13.4558
1 -11.603 2.79099 -3.21662
1 15.5788 -15.9347 6.26794
1 -8.30829 -17.4027 -9.77719
1 19.8391 3.88357 6.04329
1 17.0823 -9.60971 -5.0081
1 -6.55445 -1.66766 14.14
1 -13.437 1.09742 -2.15408
1 -16.2877 11.197 -4.31755
1 -7.23725 3.84536 15.3826
1 6.50974 0.135665 0.554378
1 -2.76504 11.6675 15.7623
1 19.3354 -4.30053 16.3751
1 -4.71905 5.70957 3.63805
1 -12.073 1.70892 -19.4343
1 14.9369 11.7752 16.6039
1 -6.85214 -15.9765 7.85981
1 -16.8604 0.257504 17.6824
1 -16.4785 5.7822 -15.0676
1 16.1647 5.53678 -5.38287
1 4.11837 -2.89529 -16.6832
1 18.6472 3.45963 -2.23406
1 8.20829 -2.1554 0.544766
1 4.89765 0.879532 14.5658
1 3.96412 19.7351 -3.93585
1 6.70164 -11.1301 8.35496
1 12.6274 -19.0957 2.45286
1 -11.1282 -9.77581 -14.6588
1 -2.05055 7.00177 2.50001
1 -8.58351 7.78747 0.370434
1 15.3134 -0.868857 2.49022
1 11.8981 5.75584 5.13995
1 -10.634 -15.9068 -3.86136
1 11.5093 -6.43597 -16.2327
1 17.2546 -8.90819 -2.00032
1 -19.4915 18.7174 19.7702
1 17.8619 11.9615 7.15195
1 16.9985 17.2648 16.1955
1 2.28293 18.9756 8.76026
1 2.74125 -2.68213 -5.17336
1 3.69476 8.16871 14.0055
1 -0.100352 8.08397 15.8242
1 -12.5896 6.32536 -3.42047
1 -16.6813 -2.29776 -18.4783
1 -3.87312 -17.0519 -0.671138
1 -1.08405 1.75289 14.6888
1 16.0702 -12.3462 -16.9149
1 1.08931 -0.115128 18.9209
1 12.9687 -17.8511 17.5438
1 15.8353 -11.1639 -14.6882
1 6.25484 18.2673 -19.2379
1 -11.5602 -7.49779 -2.84645
1 -13.9505 -8.13787 0.484532
1 12.0349 -13.6201 -7.17199
1 -17.0815 6.26649 10.0227
1 -1.9778 1.81502 -7.67829
1 18.897 -7.28563 -7.69631
1 3.58244 0.854922 19.4939
1 5.0241 -14.3712 -8.89541
1 14.1363 -19.6166 -16.2875
1 -10.504 -5.02626 -12.2522
1 -15.8934 -0.634057 -12.3866
1 1.12522 7.29292 6.19525
1 -12.0073 18.753 10.2192
1 -5.98881 17.5148 11.5987
1 14.0744 7.90257 2.00452
1 19.0537 3.87656 9.56021
1 17.8791 13.4159 5.29316
1 14.4985 -8.26008 -18.8152
1 10.9802 -16.7381 -1.76575
1 11.5484 13.0466 1.03218
1 9.68757 5.69072 -3.48956
1 -3.08761 -15.1105 -19.1314
1 -15.4206 -15.5486 6.49179
1 1.11681 5.75009 2.82431
1 1.98979 12.1796 -14.6764
1 7.09687 -6.33417 10.7836
1 -6.27664 -1.91089 -19.8128
1 5.51843 4.18636 -11.1993
1 15.7787 17.8787 -9.86469
1 18.8392 4.26421 -12.8
1 17.7362 15.385 0.162428
1 19.5052 -16.4623 -10.9029
1 18.7946 2.55844 17.0292
1 17.3127 13.088 9.24931
1 6.96215 -9.4742 -2.50142
1 -16.232 1.55759 -4.6923
1 -0.0323989 17.8645 19.3309
1 -15.5971 -14.2153 -13.9282
1 -19.3885 -19.3638 -9.06578
1 -9.33808 -16.4794 -15.1794
1 -15.9808 19.6221 17.9076
1 -15.829 -17.4892 13.3738
1 -6.9619 19.5177 -18.075
1 -14.8309 -2.32943 8.75961
1 4.32772 -5.79991 6.86617
1 0.207669 -16.88 -19.2189
1 -15.5564 -13.052 1.87829
1 3.13828 12.8696 11.976
1 -12.4713 0.573494 -7.37702
1 -13.6516 -10.1656 8.36258
1 -12.1582 19.1663 -15.0622
1 5.69418 13.7189 11.4952
1 -17.9081 -14.1176 -6.09869
1 -10.5844 9.82483 -16.1038
1 -14.358 -16.0977 12.2827
1 -4.57503 12.607 8.75272
1 -10.5923 7.86681 11.1371
1 12.9034 -1.30421 5.33371
1 -7.48616 19.9788 0.36614
1 -9.68955 3.06371 2.65829
1 -5.40864 -12.7026 -17.0958
1 -17.7084 -8.08198 -3.48149
1 -6.88401 1.90064 12.7708
1 -4.48184 9.58617 9.22044
1 -10.0777 2.04321 2.73003
1 -17.2002 -6.58117 -19.2242
1 3.86762 3.83303 -14.106
1 -14.7207 11.2996 -16.3288
1 -4.89269 -18.3306 10.477
1 10.7537 -5.7247 14.5859
1 -10.6666 -6.12979 5.18398
1 -1.58059 -3.59973 -19.0019
1 17.2515 -15.2333 -11.684
1 -4.57251 1.20402 1.27117
1 -2.66081 -12.7515 -13.0622
1 15.7087 -5.45538 -15.9196
1 -0.547227 -1.67172 -18.3344
1 -19.1778 5.19011 -14.3804
1 15.5258 -6.7939 1.76231
1 18.3854 -8.25894 16.4608
1 0.223496 2.79897 11.2474
1 9.17287 13.4842 -8.33413
1 8.02434 18.4524 8.17162
1 -12.5911 4.85363 -0.680291
1 -8.08591 -2.53684 1.31688
1 18.5315 -0.47693 -8.06649
1 6.36857 9.94394 12.2872
1 -11.3271 1.30115 -13.5368
1 5.64777 5.76276 14.7745
1 4.5556 -19.6093 -15.3646
1 -11.022 11.1641 14.4652
1 19.6715 19.6231 16.6592
1 -0.863975 11.9478 -9.23799
1 -14.5398 -11.2355 -13.4655
1 -7.05286 15.0897 -14.2314
1 5.11704 -19.1236 19.7111
1 -2.02135 14.0849 17.0024
1 -13.8498 -7.12064 -7.79
1 -15.6804 -14.7411 1.9343
1 -5.69164 3.48952 -18.6078
1 -13.5684 -16.8742 12.6302
1 -15.4386 0.824305 -16.1226
1 -18.5153 13.4258 -5.37052
1 7.68362 -2.58027 6.82675
1 -7.33408 -17.1706 -8.50004
1 -13.0644 -16.9155 18.587
1 -5.33175 -15.6249 -19.6439
1 19.7769 -19.9537 4.43125
1 14.4851 19.8018 14.3366
1 -1.71668 -17.7216 5.63777
1 5.82704 -9.00996 11.8601
1 9.71815 -5.81675 2.2416
1 10.2413 -12.6758 15.4457
1 13.5561 -9.72461 -8.48511
1 1.18779 -5.98939 4.94548
1 14.4083 10.0247 -6.47963
1 -2.70434 2.96876 5.04204
1 -8.32557 14.1668 -13.5229
1 -18.745 2.995 -8.90414
1 2.84083 -10.7677 -3.47168
1 3.17963 18.2608 0.41343
1 17.4577 6.87114 17.4328
1 -11.4845 -3.73879 14.2628
1 9.25645 12.415 -9.99447
1 14.9104 2.16806 15.6388
1 -18.4055 -15.982 -14.6735
1 9.51519 6.18558 8.37685
1 1.35523 -2.301 0.682334
1 4.07644 -3.36784 11.4005
1 13.9262 -1.08355 4.98368
1 13.3511 -17.4098 8.21014
1 0.141239 16.3388 -3.81346
1 2.25999 14.3653 -12.1015
1 5.42648 -1.50071 -3.66699
1 -10.4137 -13.1252 -16.8194
1 -17.1111 0.60552 0.117811
1 -16.8268 11.6497 -5.2378
1 9.99709 7.99145 17.0142
1 6.94144 3.20133 6.68687
1 -18.194 3.56526 -10.756
1 -10.5613 -9.00539 -6.70185
1 -8.27408 -17.9814 -17.5253
1 -4.85952 -4.6487 -9.49802
1 13.3158 -8.07499 16.9403
1 3.55967 -4.72265 9.75579
1 6.84454 -1.96462 13.0406
1 -5.2079 -7.41657 -15.3715
1 -16.2227 10.6283 -1.2218
1 2.01698 -3.18754 -9.75968
1 -1.49858 10.0365 5.50698
1 -16.6951 -19.8197 -15.4774
1 3.64601 9.39882 -3.49126
1 7.67877 10.0815 0.989098
1 -2.22175 16.8046 4.49008
1 -4.36785 7.83264 -12.5618
1 -10.4119 -6.66892 -9.7446
1 3.92533 6.72413 16.4733
1 -6.65524 16.4973 -12.6591
1 0.513236 5.91049 -10.5104
1 -7.53956 10.8135 17.3553
1 -19.5129 -17.2185 -15.9944
1 -1.34172 4.56666 0.147234
1 5.19973 -17.3779 13.0983
1 -17.8137 16.6847 -8.78145
1 -13.0798 -14.7499 -3.80545
1 -14.1049 1.55393 -10.5021
1 0.568962 17.3517 -4.10603
1 -16.3024 -19.348 7.5775
1 -9.8922 6.38407 3.1483
1 -6.429 -11.4299 -16.5231
1 11.9425 12.4016 0.219749
1 18.1681 -8.0715 10.2097
1 -10.72 -10.7015 -12.3208
1 -7.21872 -2.75536 7.63613
1 12.5531 -3.42904 19.6818
1 14.5425 1.96927 -19.5199
1 -18.131 6.7056 -3.42615
1 -14.4655 -4.23438 1.68426
1 10.9352 18.956 -9.62667
1 -10.373 -5.80724 -4.55909
1 -12.1823 -9.86474 0.321036
1 6.99598 -5.47151 7.34401
1 7.94677 -12.6658 -1.39551
1 12.3588 2.8074 -10.083
1 -7.01969 15.1518 -15.3462
1 -13.917 -2.23037 -13.2927
1 -14.4947 -19.4888 3.39369
1 -15.3035 -17.0721 -16.7614
1 -8.92926 -17.6234 4.39961
1 -17.4493 -18.0131 16.6817
1 -15.706 18.4882 1.45182
1 3.74633 -5.97415 8.0128
1 -6.87142 8.54052 7.1081
1 5.45776 19.4032 6.81103
1 -11.0924 18.4451 -4.01682
1 16.465 -3.71429 7.25824
1 -14.8397 -2.40622 -5.40621
1 -2.51877 16.1274 -14.7728
1 -17.9069 -11.2563 -12.944
1 -15.4484 16.0004 -6.33204
1 -8.71098 8.11077 8.44633
1 -3.32751 -2.92879 -17.1528
1 16.1234 -18.9334 -7.13979
1 -16.0012 -11.2953 -9.50423
1 -10.9699 7.78514 -12.1975
1 8.11502 17.4071 -5.0023
1 -15.8583 -18.3864 14.0714
1 7.58106 -19.5832 -5.75933
1 7.6609 -1.16259 10.3389
1 6.67479 -11.1212 2.56988
1 9.05043 -0.249854 3.35243
1 -15.4677 -10.3285 -2.10167
1 -4.64998 9.66192 5.37127
1 19.5497 1.51318 8.21775
1 14.6499 7.89116 -13.2396
1 -7.87757 15.8024 -7.40509
1 17.7397 2.66822 -13.3659
1 16.9904 13.9543 5.70371
1 -14.5761 16.9673 17.974
1 13.2204 -14.9684 -13.9961
1 -8.52391 4.94686 -11.4822
1 19.2598 11.3695 -9.75425
1 0.366591 -2.56418 4.94005
1 14.4119 6.16913 19.8618
1 17.3271 -5.52293 9.0774
1 -3.48754 -16.5863 7.05456
1 15.632 -6.82169 -19.6938
1 8.03824 -16.5857 11.5555
1 9.02782 -3.03143 0.480734
1 -3.45153 -15.1647 -5.96489
1 5.20236 18.9576 -14.4155
1 18.9052 -4.81885 11.9011
1 6.04718 9.35334 -16.1922
1 -4.62594 7.83942 -17.195
1 -12.2558 18.9374 -16.1805
1 18.3561 16.2171 18.3075
1 -12.7433 19.3096 16.4629
1 -15.0046 7.73706 18.0543
1 -12.7012 7.37485 -2.7856
1 -1.29851 14.788 -1.69676
1 -19.3595 -10.5464 -17.5331
1 17.1534 19.3904 14.4642
1 -15.4987 -8.02366 -5.34832
1 16.8411 -16.3238 5.98543
1 -11.8944 -19.4386 -2.76214
1 9.09182 -2.10732 9.1403
1 -9.34466 -17.9812 -5.09866
1 13.0408 14.996 8.68175
1 -0.546188 17.9806 8.47324
1 6.29181 14.5077 -6.33796
1 -9.31691 -15.502 -3.04123
1 19.4627 -6.25136 -16.679
1 7.69429 2.94041 -8.90756
1 -3.94599 15.9657 7.42555
1 -19.0903 9.94485 -7.91809
1 2.30631 -5.77028 11.8791
1 -18.3677 17.5005 7.93797
1 -12.952 -12.0923 -13.6598
1 12.3588 -9.38668 -2.76896
1 17.8811 -9.69731 2.34279
1 -15.3215 13.3842 -10.2798
1 -10.8589 -14.8231 -4.18717
1 -2.729 8.55477 18.4035
1 12.4543 6.22169 -2.98225
1 -7.86969 12.9192 -12.5787
1 16.9864 -6.44876 -6.52556
1 -16.4156 -19.0371 -11.8819
1 10.1333 -0.297724 -6.33603
1 -7.84728 -7.14207 10.0999
1 -14.9718 -1.2722 -6.86259
1 8.25665 0.539065 -17.087
1 15.7904 14.0066 2.89342
1 14.0326 -14.0107 14.1094
1 -17.3746 -6.20782 5.39573
1 14.6965 -18.6294 -7.39353
1 -18.1644 11.7183 9.17264
1 -18.0174 16.5384 -2.44454
1 7.88007 -9.29407 -11.6233
1 -12.7984 -0.284969 12.9976
1 -1.16454 12.2431 -16.6371
1 10.7049 3.55059 4.52364
1 -8.45685 -15.189 -11.4121
1 -3.76319 -11.9824 -1.36943
1 -12.9252 -1.60286 -13.2331
1 18.6049 -5.01308 19.154
1 -16.9718 -11.0315 -13.5248
1 -10.9996 -0.203464 7.24942
1 -8.3223 -17.9602 10.4531
1 6.39263 -8.43235 -5.88662
1 -13.6746 -10.8206 19.4425
1 -15.2937 16.6172 17.1978
1 11.9194 9.78671 -11.521
1 -7.9383 9.86147 7.97521
1 -4.9423 -12.0643 -16.1044
1 8.18962 -3.22198 12.3689
1 -13.1048 -2.47662 -12.5555
1 -9.87391 -3.02368 -13.0832
1 4.66671 -18.5479 2.786
1 -9.81878 16.4806 9.11074
1 13.892 -18.5914 -11.6549
1 -11.1718 2.67171 5.19716
1 18.124 -19.441 18.7739
1 -8.51712 -3.75158 13.253
1 10.7729 -19.2307 -14.7019
1 3.3599 7.88798 7.47406
1 12.2195 16.2016 11.2782
1 18.7702 -11.1156 -19.9343
1 -18.5438 6.0133 -4.34703
1 0.593905 -6.50935 -9.98859
1 -8.16936 9.53002 1.8283
1 -0.890696 7.79569 -5.87369
1 -12.4304 4.00049 2.97161
1 -5.01956 12.9266 9.70627
1 -13.5865 -2.59113 17.1984
1 -17.4622 0.211298 13.0652
1 11.8955 -14.9029 17.5205
1 14.3154 -7.91752 12.4748
1 -6.06014 9.82662 -1.92022
1 10.1225 -6.53036 -16.5306
1 1.81492 10.007 5.39799
1 7.49843 6.67578 12.9342
1 -9.51668 -2.69894 -6.5641
1 13.5227 4.80627 -17.0631
1 -8.66846 -12.8591 -12.8519
1 -6.72233 2.94456 3.55913
1 9.96599 -8.5914 2.33015
1 16.0555 7.15669 -4.84012
1 -10.5089 12.4917 -8.63239
1 13.0068 -3.53515 -15.6893
1 -1.79665 14.8704 19.5831
1 -1.12136 11.3222 19.8312
1 -19.0329 -7.47621 -8.15477
1 -5.22651 19.2337 -9.6956
1 1.66524 -0.210335 3.27362
1 -17.5027 -7.29656 -8.91352
1 -9.39003 17.6308 -19.3062
1 -17.8931 -2.61013 -9.95826
1 1.85246 -9.44722 7.70586
1 8.54627 19.0369 11.2175
1 9.48955 8.76634 -6.83671
1 -6.44608 -10.9295 6.87493
1 -14.7633 -13.9553 7.26417
1 17.5749 -15.9866 -14.0572
1 11.1238 18.6093 -4.91885
1 -4.44547 16.7263 11.9932
1 -14.805 18.5826 -8.79806
1 -4.11077 7.14316 -18.1472
1 -17.9733 -11.9285 19.6457
1 4.06655 -2.38763 -19.4761
1 4.83053 -9.84786 15.2888
1 -10.5601 1.03971 12.9708
1 19.8624 2.88026 -18.3288
1 13.0129 -11.0546 16.0499
1 17.7181 10.8598 7.36306
1 8.08188 11.0481 1.61409
1 0.292844 2.68318 -9.90643
1 0.454645 -16.6826 0.160163
1 -17.5827 -16.2612 1.41466
1 -10.7533 -1.52055 5.98858
1 -10.1505 13.5985 -19.3561
1 -19.7377 4.39827 -11.5957
1 -13.934 -2.36123 14.7547
1 5.57016 -6.8519 5.1855
1 -16.5259 12.2074 4.5544
1 12.5856 18.5162 6.50782
1 7.55311 -11.1576 10.4611
1 18.9482 -18.7396 -3.91466
1 7.5292 -11.3668 3.25298
1 -8.84085 9.54838 18.3594
1 -3.43146 0.541594 9.45007
1 -10.4877 -2.34656 19.0682
1 16.9031 5.03899 -13.3906
1 4.83697 -8.34523 -19.0567
1 -3.30364 -19.1024 1.61037
1 -0.856173 19.8118 -8.85823
1 -14.0255 3.87303 -9.6688
1 -7.74407 4.21423 17.4354
1 -18.552 -14.3111 -2.52544
1 9.20704 -1.84343 -13.3211
1 -3.26575 -15.0551 16.4429
1 -4.84051 9.80314 19.5202
1 -1.75625 -0.945011 -19.9646
1 8.3682 -1.34222 3.59955
1 -2.87304 -18.325 -8.59378
1 18.7589 10.3328 9.97243
1 -4.35236 1.8203 5.11361
1 -11.277 -13.3819 2.75213
1 -0.616151 3.93047 12.2494
1 16.9681 6.42547 5.68287
1 3.68597 2.96539 -0.236111
1 -2.38315 18.8497 -12.1594
1 -12.7133 17.863 8.1368
1 -1.74446 19.1759 17.5096
1 10.6783 -10.8434 11.2823
1 18.7723 2.93673 -9.25204
1 -19.4589 -4.00545 -0.979282
1 19.6951 11.4606 -12.4534
1 -1.89146 -4.98889 15.6953
1 9.18078 -18.2163 3.48682
1 -18.2804 -11.9722 -4.80658
1 6.33544 6.08924 1.7948
1 5.41854 13.585 -17.7954
1 -19.8857 -4.82182 -7.6475
1 7.98932 -19.2168 -3.79545
1 -1.05505 -17.1514 -4.41736
1 -18.6911 -18.2069 11.6709
1 -19.5442 -3.83617 -5.82056
1 -4.81263 -12.3 -7.08142
1 -15.5541 -3.3024 -5.13051
1 17.6618 -1.32015 8.69366
1 2.65478 -18.2123 1.69227
1 -16.7547 14.9716 4.08469
1 -2.52528 7.67094 11.615
1 11.4077 5.75604 -13.7811
1 8.25314 10.7162 8.79749
1 -13.3801 1.93073 -19.5716
1 -1.18494 5.59359 -8.57482
1 -6.09796 0.680132 0.0904664
1 -11.7513 12.3424 -11.748
1 5.02053 11.1067 4.15538
1 -12.4094 -15.3517 -0.622066
1 -0.227205 15.7761 6.86652
1 -15.5686 -7.58523 -13.9062
1 6.14906 4.76277 14.6844
1 -6.97052 10.3263 2.98992
1 -18.0537 9.96526 -19.8251
1 12.6958 -7.24342 -4.89552
1 10.8174 -2.765 -9.83387
1 -9.78286 -4.67295 -16.1669
1 -5.16672 6.70676 3.3401
1 -9.76683 5.57187 -1.91972
1 6.58253 18.1631 14.4369
1 10.139 18.7874 -8.86744
1 -8.28266 -18.0263 1.04685
1 8.95394 4.17216 0.734192
1 8.59017 -6.94956 -15.2458
1 14.8955 -18.199 11.5993
1 11.2533 1.44745 14.5764
1 -5.09609 -6.54462 1.23712
1 14.4012 -4.00048 1.42026
1 10.7347 18.5142 8.34945
1 9.06738 9.75691 -9.81336
1 -11.1033 -11.027 -2.45627
1 -9.82713 -2.85651 8.8466
1 7.30406 7.18602 19.923
1 -12.1635 11.288 -12.4714
1 -3.85084 3.97493 9.96334
1 -9.82504 -7.68828 14.1611
1 10.7687 17.7737 -12.9763
1 2.94147 6.65518 -18.1471
1 -6.6766 18.1208 6.6906
1 -19.6952 -2.98349 -12.271
1 17.1037 3.38761 3.46337
1 8.09746 16.1919 -4.73128
1 18.1618 -17.4942 -1.53699
1 -15.7927 -4.96289 -9.87778
1 -5.72924 -17.3983 1.80649
1 7.96611 -12.0256 11.619
1 8.8991 -17.7542 4.44091
1 -16.7502 -0.697496 14.6652
1 -1.49562 0.924007 18.1226
1 8.33507 -1.13822 7.02987
1 5.48895 -7.1525 19.2641
1 -15.5679 -10.9005 15.3003
1 -12.3105 10.0817 2.58117
1 -15.7164 -14.9268 -7.71322
1 9.77335 -13.1772 -6.03747
1 2.72601 -8.51492 8.58298
1 -4.49237 6.11364 8.13515
1 0.167878 7.43843 16.7206
1 9.03804 -11.4389 -12.5867
1 -6.19272 -0.914019 -13.5761
1 -17.7207 2.5038 13.2135
1 -0.589499 15.779 -14.4335
1 -12.8772 -5.63924 -1.18753
1 -18.9327 -14.4632 19.2482
1 -5.87718 17.1335 13.2949
1 14.77 -7.56674 0.496747
1 17.7454 14.3495 -17.854
1 1.83188 0.191709 9.63642
1 -19.6945 13.0266 3.12596
1 -3.22699 12.4529 -2.08264
1 12.9701 13.1695 16.5392
1 -5.09883 -7.99665 -16.6462
1 16.392 18.5171 -14.7228
1 -19.1245 15.0462 -15.9506
1 9.48222 5.18915 -1.94743
1 -7.85499 -5.61041 -13.9535
1 7.05589 5.29836 2.09536
1 -17.9642 13.8264 10.4573
1 -10.113 -12.9587 1.14157
1 -16.3668 15.1817 -18.7007
1 -3.67888 8.11913 17.9453
1 0.20094 -8.18216 14.641
1 6.61563 8.90066 4.62101
1 10.9413 12.7647 -13.1967
1 12.8145 10.1541 -5.79914
1 18.2468 -15.1217 -6.3584
1 -19.3095 18.1625 10.4959
1 12.6121 18.9356 -16.4167
1 -15.7842 -1.92724 -7.29401
1 -19.9764 8.24227 -16.4223
1 2.54301 -8.88234 -10.0005
1 -9.05865 -3.86926 -15.8294
1 7.16882 -12.0319 4.08571
1 19.2888 -8.24624 6.1708
1 -7.55083 -7.62399 6.65806
1 0.863505 12.7939 6.56321
1 2.83587 -14.6948 -1.62888
1 8.63196 -11.8479 10.753
1 -9.84496 -6.29868 5.94229
1 -5.5929 -15.3322 6.59367
1 -3.75648 -9.89972 11.6502
1 -7.10292 12.754 -4.86112
1 2.9578 -7.20075 5.7682
1 -1.43782 5.15189 18.1973
1 6.31659 14.2318 -12.4819
1 -13.6534 -4.03064 19.9324
1 -7.24231 13.6208 18.7581
1 6.0018 -6.90256 -14.321
1 -14.1625 7.11452 8.057
1 -15.7134 9.83565 -12.7795
1 -9.70103 19.0305 -2.04323
1 -16.0145 14.6387 3.315
1 13.8466 -11.2047 -9.38904
1 -5.94463 0.780274 -11.0801
1 -10.0087 -11.2632 -1.45397
1 1.27599 1.00352 -16.9801
1 18.9074 -16.6817 7.08822
1 5.19806 -2.51672 8.92746
1 12.4657 -15.8654 17.5296
1 -5.63008 6.34194 -0.338326
1 -12.0544 -17.7994 -13.1401
1 14.043 -3.28766 3.27844
1 -18.1282 16.2641 14.5414
1 -4.075 5.83911 -19.4235
1 -15.0284 -9.17523 -9.65702
1 3.87661 11.8925 13.2675
1 -4.07468 10.0511 18.2249
1 14.934 -4.80738 13.1043
1 16.7501 -1.40886 -17.9934
1 -5.99412 -5.50539 -6.39051
1 7.16102 18.5691 -8.35531
1 -8.74507 -11.2201 17.9989
1 -19.3446 0.221325 15.7297
1 5.34939 -6.75234 -1.11208
1 -1.47126 8.061 -16.2179
1 -19.4785 2.16942 -4.48208
1 -14.2866 19.6995 -16.9009
1 3.76791 10.5333 -12.1248
1 13.571 -11.8578 2.28068
1 0.341484 -7.9431 4.96656
1 5.78902 -13.3044 -1.95404
1 19.3593 -2.27627 -0.209793
1 -1.4454 -4.55499 0.727827
1 -7.90241 -11.5793 9.81156
1 -4.99344 6.53461 15.3878
1 -1.96613 -3.98342 -19.9747
1 -11.6839 -14.1199 0.580056
1 -3.42796 16.2754 -3.70987
1 -4.25343 -8.94571 18.9194
1 16.2236 7.87909 -0.955032
1 -11.0074 -8.38787 11.6863
1 -4.23178 -14.2982 10.1809
1 -13.2717 3.73996 -13.8242
1 5.02526 -3.25486 -0.720082
1 -16.1747 17.6054 12.2024
1 -15.5637 -8.45266 14.8759
1 7.80057 18.3727 -12.013
1 -3.12705 -6.69907 -16.946
1 7.30673 2.83477 1.63902
1 18.2718 -5.39964 -14.8117
1 12.7144 8.92291 7.97944
1 -13.8682 -10.3709 12.2467
1 -19.5805 -12.5641 -1.11153
1 -2.97238 -3.37856 13.211
1 12.1301 9.96842 -12.6047
1 1.95903 17.8614 -13.8566
1 2.50072 5.94932 -8.00445
1 0.19783 8.86096 -3.90386
1 -4.3644 -1.07502 11.7234
1 -1.81344 -5.62059 -1.60621
1 -1.32635 10.1076 -9.89417
1 -15.7337 -5.09001 -8.48553
1 5.62267 -1.93146 -5.54004
1 -1.54444 5.78223 10.8804
1 -16.0502 7.2953 11.1673
1 -17.3158 5.60805 14.3949
1 -8.01458 9.06365 13.213
1 -12.1815 -2.71617 11.9913
1 -6.79052 -5.83712 -13.7681
1 -11.9771 -3.77934 17.3263
1 -16.5728 -0.364769 -10.7976
1 4.77099 13.2836 7.94734
1 -13.7512 9.46503 -8.24459
1 -2.68396 -7.68998 13.9717
1 -8.55952 -19.4632 18.129
1 0.419864 -4.96449 -16.2901
1 11.4825 16.591 5.08901
1 -6.54984 -7.19089 14.3686
1 8.98858 5.60254 -4.88407
1 -5.9648 8.52383 6.153
1 -9.81567 9.99152 7.03014
1 -17.5467 19.6003 -3.82875
1 5.06859 -14.7501 0.0211991
1 17.428 18.7276 6.49151
1 -8.2715 16.7166 12.0235
1 -16.2161 -19.9801 11.8477
1 10.2898 19.2852 -4.59659
1 0.998842 -9.00514 -14.1289
1 1.10271 -17.526 -19.3122
1 -19.1839 -14.5317 7.63536
1 11.098 -3.81482 -17.8811
1 -3.41855 -7.75887 -5.57974
1 14.2672 -12.3481 -6.30234
1 4.52213 -10.0165 10.9839
1 -17.8527 -6.60215 -12.6783
1 -7.8833 4.69029 -17.0295
1 -18.6588 -6.76239 -19.8752
1 -9.88664 -16.4364 0.935522
1 -9.72747 6.48765 -17.7234
1 -11.2985 -5.41372 8.92182
1 -14.4436 -9.79115 2.2659
1 11.1836 15.5203 5.82469
1 2.71443 -13.1671 -19.8598
1 10.0592 7.89267 8.3751
1 0.07078 -10.2402 7.00177
1 8.2627 -19.369 -17.644
1 14.684 -3.61459 8.92603
1 -5.42138 5.63921 19.121
1 16.8402 -8.64317 -0.718724
1 14.4605 12.854 0.358234
1 -10.9313 9.65448 11.798
1 18.3592 -1.00897 6.95057
1 -18.6787 5.26528 -6.6432
1 15.8585 -14.0921 2.89013
1 -15.4017 11.183 -6.28424
1 7.10261 -1.56952 -10.2849
1 -8.26078 -15.2723 11.3962
1 12.3241 -14.0986 -3.52268
1 -3.54017 10.77 2.35433
1 19.2264 -4.62702 3.84242
1 -1.20996 15.4444 -3.8052
1 -17.1048 16.289 -6.69736
1 17.9157 -15.4155 18.4283
1 7.48337 -1.09424 -17.6899
1 11.2166 -9.98639 10.643
1 6.55925 -11.7446 15.6562
1 3.24197 5.75361 -16.2447
1 -11.9624 13.3185 13.9126
1 -10.8524 -3.12103 -0.927683
1 -0.775772 6.16164 13.7432
1 18.9471 -19.4506 2.06184
1 14.2679 -8.82159 -3.85814
1 11.5648 6.22739 -6.35127
1 -19.7337 4.73203 5.43061
1 -4.50611 6.30121 19.1265
1 -6.32912 -4.67303 -1.20503
1 -4.06514 1.68651 -13.0325
1 0.671261 -13.1458 -11.6437
1 -9.69778 -17.8994 -8.34182
1 9.05308 -18.1246 5.47102
1 -11.7969 0.44451 7.58674
1 -5.97602 9.42814 -17.361
1 -9.73972 -19.3223 -12.4712
1 -3.1992 10.4157 -3.04255
1 14.5832 -13.1443 8.2466
1 -16.0051 11.5001 6.04497
1 -13.5229 19.9872 0.510262
1 16.3042 19.2691 -5.85614
1 -13.193 -13.555 2.65817
1 14.4605 0.513153 15.0959
1 9.54957 -10.2633 14.3074
1 -8.61669 13.4321 -1.30234
1 0.757155 -7.42497 12.6526
1 -1.71668 -9.18837 8.61675
1 1.61126 7.76722 -8.87685
1 10.1498 -17.4925 -8.02513
1 -10.8031 6.81235 3.65692
1 -0.981642 9.31885 10.747
1 9.93138 -5.6745 13.8144
1 19.0888 -19.7654 19.3178
1 7.89629 -16.5771 2.69896
1 -13.4273 -16.6859 9.48745
1 -17.1101 -5.24066 15.511
1 -6.04195 -18.9427 -11.6548
1 8.7708 16.4761 7.93052
1 -2.30485 9.68391 -7.68558
1 2.00802 -14.6126 -4.45848
1 15.9464 6.02113 5.54969
1 12.5184 -0.186157 -16.0866
1 17.8791 7.58685 -4.63171
1 -9.85822 -13.0552 8.62199
1 -3.22576 -1.40723 5.46155
1 -18.8363 14.2118 -16.6529
1 15.1988 -15.6396 -10.3874
1 15.0762 4.05428 -6.3742
1 -19.5586 14.7313 0.389117
1 12.5578 -3.77095 9.92764
1 16.4709 -9.79168 -7.40429
1 -7.37481 -9.20968 13.0982
1 3.46887 -5.63412 18.9443
1 11.8307 1.73977 -16.8053
1 -11.0529 -6.6917 -4.32115
1 0.61004 -0.66695 -15.0797
1 -17.5342 9.66461 -2.07565